;
;	File 'topol_Protein_chain_E.itp' was generated
;	By user: malinda (504)
;	On host: registered-ip-10-196-114-37.lifesci.nor.ou.edu
;	At date: Wed Feb 25 13:18:41 2026
;
;	This is a include topology file
;
;	Created by:
;	                    :-) GROMACS - gmx pdb2gmx, 2022.4 (-:
;	
;	Executable:   /usr/local/gromacs/bin/gmx
;	Data prefix:  /usr/local/gromacs
;	Working dir:  /Users/malinda/Desktop/TTR/simulations/fi10/new
;	Command line:
;	  gmx pdb2gmx -f cluster1_1.pdb -o fi10_t2.gro -water tip3p -ignh
;	Force field was read from the standard GROMACS share directory.
;

[ moleculetype ]
; Name            nrexcl
Protein_chain_E     3

[ atoms ]
;   nr       type  resnr residue  atom   cgnr     charge       mass  typeB    chargeB      massB
; residue 509 PHE rtp PHE  q +1.0
     1        NH3    509    PHE      N      1       -0.3     14.007
     2         HC    509    PHE     H1      2       0.33      1.008
     3         HC    509    PHE     H2      3       0.33      1.008
     4         HC    509    PHE     H3      4       0.33      1.008
     5        CT1    509    PHE     CA      5       0.21     12.011
     6        HB1    509    PHE     HA      5        0.1      1.008
     7        CT2    509    PHE     CB      6      -0.18     12.011
     8        HA2    509    PHE    HB1      6       0.09      1.008
     9        HA2    509    PHE    HB2      6       0.09      1.008
    10         CA    509    PHE     CG      7          0     12.011
    11         CA    509    PHE    CD1      8     -0.115     12.011
    12         HP    509    PHE    HD1      8      0.115      1.008
    13         CA    509    PHE    CE1      9     -0.115     12.011
    14         HP    509    PHE    HE1      9      0.115      1.008
    15         CA    509    PHE     CZ     10     -0.115     12.011
    16         HP    509    PHE     HZ     10      0.115      1.008
    17         CA    509    PHE    CD2     11     -0.115     12.011
    18         HP    509    PHE    HD2     11      0.115      1.008
    19         CA    509    PHE    CE2     12     -0.115     12.011
    20         HP    509    PHE    HE2     12      0.115      1.008
    21          C    509    PHE      C     13       0.51     12.011
    22          O    509    PHE      O     13      -0.51    15.9994   ; qtot 1
; residue 510 LYS rtp LYS  q +1.0
    23        NH1    510    LYS      N     14      -0.47     14.007
    24          H    510    LYS     HN     14       0.31      1.008
    25        CT1    510    LYS     CA     14       0.07     12.011
    26        HB1    510    LYS     HA     14       0.09      1.008
    27        CT2    510    LYS     CB     15      -0.18     12.011
    28        HA2    510    LYS    HB1     15       0.09      1.008
    29        HA2    510    LYS    HB2     15       0.09      1.008
    30        CT2    510    LYS     CG     16      -0.18     12.011
    31        HA2    510    LYS    HG1     16       0.09      1.008
    32        HA2    510    LYS    HG2     16       0.09      1.008
    33        CT2    510    LYS     CD     17      -0.18     12.011
    34        HA2    510    LYS    HD1     17       0.09      1.008
    35        HA2    510    LYS    HD2     17       0.09      1.008
    36        CT2    510    LYS     CE     18       0.21     12.011
    37        HA2    510    LYS    HE1     18       0.05      1.008
    38        HA2    510    LYS    HE2     18       0.05      1.008
    39        NH3    510    LYS     NZ     18       -0.3     14.007
    40         HC    510    LYS    HZ1     18       0.33      1.008
    41         HC    510    LYS    HZ2     18       0.33      1.008
    42         HC    510    LYS    HZ3     18       0.33      1.008
    43          C    510    LYS      C     19       0.51     12.011
    44          O    510    LYS      O     19      -0.51    15.9994   ; qtot 2
; residue 511 ASN rtp ASN  q  0.0
    45        NH1    511    ASN      N     20      -0.47     14.007
    46          H    511    ASN     HN     20       0.31      1.008
    47        CT1    511    ASN     CA     20       0.07     12.011
    48        HB1    511    ASN     HA     20       0.09      1.008
    49        CT2    511    ASN     CB     21      -0.18     12.011
    50        HA2    511    ASN    HB1     21       0.09      1.008
    51        HA2    511    ASN    HB2     21       0.09      1.008
    52         CC    511    ASN     CG     22       0.55     12.011
    53          O    511    ASN    OD1     22      -0.55    15.9994
    54        NH2    511    ASN    ND2     23      -0.62     14.007
    55          H    511    ASN   HD21     23       0.32      1.008
    56          H    511    ASN   HD22     23        0.3      1.008
    57          C    511    ASN      C     24       0.51     12.011
    58          O    511    ASN      O     24      -0.51    15.9994   ; qtot 2
; residue 512 ILE rtp ILE  q  0.0
    59        NH1    512    ILE      N     25      -0.47     14.007
    60          H    512    ILE     HN     25       0.31      1.008
    61        CT1    512    ILE     CA     25       0.07     12.011
    62        HB1    512    ILE     HA     25       0.09      1.008
    63        CT1    512    ILE     CB     26      -0.09     12.011
    64        HA1    512    ILE     HB     26       0.09      1.008
    65        CT3    512    ILE    CG2     27      -0.27     12.011
    66        HA3    512    ILE   HG21     27       0.09      1.008
    67        HA3    512    ILE   HG22     27       0.09      1.008
    68        HA3    512    ILE   HG23     27       0.09      1.008
    69        CT2    512    ILE    CG1     28      -0.18     12.011
    70        HA2    512    ILE   HG11     28       0.09      1.008
    71        HA2    512    ILE   HG12     28       0.09      1.008
    72        CT3    512    ILE     CD     29      -0.27     12.011
    73        HA3    512    ILE    HD1     29       0.09      1.008
    74        HA3    512    ILE    HD2     29       0.09      1.008
    75        HA3    512    ILE    HD3     29       0.09      1.008
    76          C    512    ILE      C     30       0.51     12.011
    77          O    512    ILE      O     30      -0.51    15.9994   ; qtot 2
; residue 513 ASP rtp ASP  q -1.0
    78        NH1    513    ASP      N     31      -0.47     14.007
    79          H    513    ASP     HN     31       0.31      1.008
    80        CT1    513    ASP     CA     31       0.07     12.011
    81        HB1    513    ASP     HA     31       0.09      1.008
    82       CT2A    513    ASP     CB     32      -0.28     12.011
    83        HA2    513    ASP    HB1     32       0.09      1.008
    84        HA2    513    ASP    HB2     32       0.09      1.008
    85         CC    513    ASP     CG     32       0.62     12.011
    86         OC    513    ASP    OD1     32      -0.76    15.9994
    87         OC    513    ASP    OD2     32      -0.76    15.9994
    88          C    513    ASP      C     33       0.51     12.011
    89          O    513    ASP      O     33      -0.51    15.9994   ; qtot 1
; residue 514 GLY rtp GLY  q  0.0
    90        NH1    514    GLY      N     34      -0.47     14.007
    91          H    514    GLY     HN     34       0.31      1.008
    92        CT2    514    GLY     CA     34      -0.02     12.011
    93        HB2    514    GLY    HA1     34       0.09      1.008
    94        HB2    514    GLY    HA2     34       0.09      1.008
    95          C    514    GLY      C     35       0.51     12.011
    96          O    514    GLY      O     35      -0.51    15.9994   ; qtot 1
; residue 515 TYR rtp TYR  q  0.0
    97        NH1    515    TYR      N     36      -0.47     14.007
    98          H    515    TYR     HN     36       0.31      1.008
    99        CT1    515    TYR     CA     36       0.07     12.011
   100        HB1    515    TYR     HA     36       0.09      1.008
   101        CT2    515    TYR     CB     37      -0.18     12.011
   102        HA2    515    TYR    HB1     37       0.09      1.008
   103        HA2    515    TYR    HB2     37       0.09      1.008
   104         CA    515    TYR     CG     38          0     12.011
   105         CA    515    TYR    CD1     39     -0.115     12.011
   106         HP    515    TYR    HD1     39      0.115      1.008
   107         CA    515    TYR    CE1     40     -0.115     12.011
   108         HP    515    TYR    HE1     40      0.115      1.008
   109         CA    515    TYR     CZ     41       0.11     12.011
   110        OH1    515    TYR     OH     41      -0.54    15.9994
   111          H    515    TYR     HH     41       0.43      1.008
   112         CA    515    TYR    CD2     42     -0.115     12.011
   113         HP    515    TYR    HD2     42      0.115      1.008
   114         CA    515    TYR    CE2     43     -0.115     12.011
   115         HP    515    TYR    HE2     43      0.115      1.008
   116          C    515    TYR      C     44       0.51     12.011
   117          O    515    TYR      O     44      -0.51    15.9994   ; qtot 1
; residue 516 PHE rtp PHE  q  0.0
   118        NH1    516    PHE      N     45      -0.47     14.007
   119          H    516    PHE     HN     45       0.31      1.008
   120        CT1    516    PHE     CA     45       0.07     12.011
   121        HB1    516    PHE     HA     45       0.09      1.008
   122        CT2    516    PHE     CB     46      -0.18     12.011
   123        HA2    516    PHE    HB1     46       0.09      1.008
   124        HA2    516    PHE    HB2     46       0.09      1.008
   125         CA    516    PHE     CG     47          0     12.011
   126         CA    516    PHE    CD1     48     -0.115     12.011
   127         HP    516    PHE    HD1     48      0.115      1.008
   128         CA    516    PHE    CE1     49     -0.115     12.011
   129         HP    516    PHE    HE1     49      0.115      1.008
   130         CA    516    PHE     CZ     50     -0.115     12.011
   131         HP    516    PHE     HZ     50      0.115      1.008
   132         CA    516    PHE    CD2     51     -0.115     12.011
   133         HP    516    PHE    HD2     51      0.115      1.008
   134         CA    516    PHE    CE2     52     -0.115     12.011
   135         HP    516    PHE    HE2     52      0.115      1.008
   136          C    516    PHE      C     53       0.51     12.011
   137          O    516    PHE      O     53      -0.51    15.9994   ; qtot 1
; residue 517 LYS rtp LYS  q +1.0
   138        NH1    517    LYS      N     54      -0.47     14.007
   139          H    517    LYS     HN     54       0.31      1.008
   140        CT1    517    LYS     CA     54       0.07     12.011
   141        HB1    517    LYS     HA     54       0.09      1.008
   142        CT2    517    LYS     CB     55      -0.18     12.011
   143        HA2    517    LYS    HB1     55       0.09      1.008
   144        HA2    517    LYS    HB2     55       0.09      1.008
   145        CT2    517    LYS     CG     56      -0.18     12.011
   146        HA2    517    LYS    HG1     56       0.09      1.008
   147        HA2    517    LYS    HG2     56       0.09      1.008
   148        CT2    517    LYS     CD     57      -0.18     12.011
   149        HA2    517    LYS    HD1     57       0.09      1.008
   150        HA2    517    LYS    HD2     57       0.09      1.008
   151        CT2    517    LYS     CE     58       0.21     12.011
   152        HA2    517    LYS    HE1     58       0.05      1.008
   153        HA2    517    LYS    HE2     58       0.05      1.008
   154        NH3    517    LYS     NZ     58       -0.3     14.007
   155         HC    517    LYS    HZ1     58       0.33      1.008
   156         HC    517    LYS    HZ2     58       0.33      1.008
   157         HC    517    LYS    HZ3     58       0.33      1.008
   158          C    517    LYS      C     59       0.51     12.011
   159          O    517    LYS      O     59      -0.51    15.9994   ; qtot 2
; residue 518 ILE rtp ILE  q -1.0
   160        NH1    518    ILE      N     60      -0.47     14.007
   161          H    518    ILE     HN     60       0.31      1.008
   162        CT1    518    ILE     CA     60       0.07     12.011
   163        HB1    518    ILE     HA     60       0.09      1.008
   164        CT1    518    ILE     CB     61      -0.09     12.011
   165        HA1    518    ILE     HB     61       0.09      1.008
   166        CT3    518    ILE    CG2     62      -0.27     12.011
   167        HA3    518    ILE   HG21     62       0.09      1.008
   168        HA3    518    ILE   HG22     62       0.09      1.008
   169        HA3    518    ILE   HG23     62       0.09      1.008
   170        CT2    518    ILE    CG1     63      -0.18     12.011
   171        HA2    518    ILE   HG11     63       0.09      1.008
   172        HA2    518    ILE   HG12     63       0.09      1.008
   173        CT3    518    ILE     CD     64      -0.27     12.011
   174        HA3    518    ILE    HD1     64       0.09      1.008
   175        HA3    518    ILE    HD2     64       0.09      1.008
   176        HA3    518    ILE    HD3     64       0.09      1.008
   177         CC    518    ILE      C     65       0.34     12.011
   178         OC    518    ILE    OT1     66      -0.67    15.9994
   179         OC    518    ILE    OT2     67      -0.67    15.9994   ; qtot 1

[ bonds ]
;  ai    aj funct            c0            c1            c2            c3
    1     2     1 
    1     3     1 
    1     4     1 
    1     5     1 
    5     6     1 
    5     7     1 
    5    21     1 
    7     8     1 
    7     9     1 
    7    10     1 
   10    11     1 
   10    17     1 
   11    12     1 
   11    13     1 
   13    14     1 
   13    15     1 
   15    16     1 
   15    19     1 
   17    18     1 
   17    19     1 
   19    20     1 
   21    22     1 
   21    23     1 
   23    24     1 
   23    25     1 
   25    26     1 
   25    27     1 
   25    43     1 
   27    28     1 
   27    29     1 
   27    30     1 
   30    31     1 
   30    32     1 
   30    33     1 
   33    34     1 
   33    35     1 
   33    36     1 
   36    37     1 
   36    38     1 
   36    39     1 
   39    40     1 
   39    41     1 
   39    42     1 
   43    44     1 
   43    45     1 
   45    46     1 
   45    47     1 
   47    48     1 
   47    49     1 
   47    57     1 
   49    50     1 
   49    51     1 
   49    52     1 
   52    53     1 
   52    54     1 
   54    55     1 
   54    56     1 
   57    58     1 
   57    59     1 
   59    60     1 
   59    61     1 
   61    62     1 
   61    63     1 
   61    76     1 
   63    64     1 
   63    65     1 
   63    69     1 
   65    66     1 
   65    67     1 
   65    68     1 
   69    70     1 
   69    71     1 
   69    72     1 
   72    73     1 
   72    74     1 
   72    75     1 
   76    77     1 
   76    78     1 
   78    79     1 
   78    80     1 
   80    81     1 
   80    82     1 
   80    88     1 
   82    83     1 
   82    84     1 
   82    85     1 
   85    86     1 
   85    87     1 
   88    89     1 
   88    90     1 
   90    91     1 
   90    92     1 
   92    93     1 
   92    94     1 
   92    95     1 
   95    96     1 
   95    97     1 
   97    98     1 
   97    99     1 
   99   100     1 
   99   101     1 
   99   116     1 
  101   102     1 
  101   103     1 
  101   104     1 
  104   105     1 
  104   112     1 
  105   106     1 
  105   107     1 
  107   108     1 
  107   109     1 
  109   110     1 
  109   114     1 
  110   111     1 
  112   113     1 
  112   114     1 
  114   115     1 
  116   117     1 
  116   118     1 
  118   119     1 
  118   120     1 
  120   121     1 
  120   122     1 
  120   136     1 
  122   123     1 
  122   124     1 
  122   125     1 
  125   126     1 
  125   132     1 
  126   127     1 
  126   128     1 
  128   129     1 
  128   130     1 
  130   131     1 
  130   134     1 
  132   133     1 
  132   134     1 
  134   135     1 
  136   137     1 
  136   138     1 
  138   139     1 
  138   140     1 
  140   141     1 
  140   142     1 
  140   158     1 
  142   143     1 
  142   144     1 
  142   145     1 
  145   146     1 
  145   147     1 
  145   148     1 
  148   149     1 
  148   150     1 
  148   151     1 
  151   152     1 
  151   153     1 
  151   154     1 
  154   155     1 
  154   156     1 
  154   157     1 
  158   159     1 
  158   160     1 
  160   161     1 
  160   162     1 
  162   163     1 
  162   164     1 
  162   177     1 
  164   165     1 
  164   166     1 
  164   170     1 
  166   167     1 
  166   168     1 
  166   169     1 
  170   171     1 
  170   172     1 
  170   173     1 
  173   174     1 
  173   175     1 
  173   176     1 
  177   178     1 
  177   179     1 

[ pairs ]
;  ai    aj funct            c0            c1            c2            c3
    1     8     1 
    1     9     1 
    1    10     1 
    1    22     1 
    1    23     1 
    2     6     1 
    2     7     1 
    2    21     1 
    3     6     1 
    3     7     1 
    3    21     1 
    4     6     1 
    4     7     1 
    4    21     1 
    5    11     1 
    5    17     1 
    5    24     1 
    5    25     1 
    6     8     1 
    6     9     1 
    6    10     1 
    6    22     1 
    6    23     1 
    7    12     1 
    7    13     1 
    7    18     1 
    7    19     1 
    7    22     1 
    7    23     1 
    8    11     1 
    8    17     1 
    8    21     1 
    9    11     1 
    9    17     1 
    9    21     1 
   10    14     1 
   10    15     1 
   10    20     1 
   10    21     1 
   11    16     1 
   11    18     1 
   11    19     1 
   12    14     1 
   12    15     1 
   12    17     1 
   13    17     1 
   13    20     1 
   14    16     1 
   14    19     1 
   15    18     1 
   16    17     1 
   16    20     1 
   18    20     1 
   21    26     1 
   21    27     1 
   21    43     1 
   22    24     1 
   22    25     1 
   23    28     1 
   23    29     1 
   23    30     1 
   23    44     1 
   23    45     1 
   24    26     1 
   24    27     1 
   24    43     1 
   25    31     1 
   25    32     1 
   25    33     1 
   25    46     1 
   25    47     1 
   26    28     1 
   26    29     1 
   26    30     1 
   26    44     1 
   26    45     1 
   27    34     1 
   27    35     1 
   27    36     1 
   27    44     1 
   27    45     1 
   28    31     1 
   28    32     1 
   28    33     1 
   28    43     1 
   29    31     1 
   29    32     1 
   29    33     1 
   29    43     1 
   30    37     1 
   30    38     1 
   30    39     1 
   30    43     1 
   31    34     1 
   31    35     1 
   31    36     1 
   32    34     1 
   32    35     1 
   32    36     1 
   33    40     1 
   33    41     1 
   33    42     1 
   34    37     1 
   34    38     1 
   34    39     1 
   35    37     1 
   35    38     1 
   35    39     1 
   37    40     1 
   37    41     1 
   37    42     1 
   38    40     1 
   38    41     1 
   38    42     1 
   43    48     1 
   43    49     1 
   43    57     1 
   44    46     1 
   44    47     1 
   45    50     1 
   45    51     1 
   45    52     1 
   45    58     1 
   45    59     1 
   46    48     1 
   46    49     1 
   46    57     1 
   47    53     1 
   47    54     1 
   47    60     1 
   47    61     1 
   48    50     1 
   48    51     1 
   48    52     1 
   48    58     1 
   48    59     1 
   49    55     1 
   49    56     1 
   49    58     1 
   49    59     1 
   50    53     1 
   50    54     1 
   50    57     1 
   51    53     1 
   51    54     1 
   51    57     1 
   52    57     1 
   53    55     1 
   53    56     1 
   57    62     1 
   57    63     1 
   57    76     1 
   58    60     1 
   58    61     1 
   59    64     1 
   59    65     1 
   59    69     1 
   59    77     1 
   59    78     1 
   60    62     1 
   60    63     1 
   60    76     1 
   61    66     1 
   61    67     1 
   61    68     1 
   61    70     1 
   61    71     1 
   61    72     1 
   61    79     1 
   61    80     1 
   62    64     1 
   62    65     1 
   62    69     1 
   62    77     1 
   62    78     1 
   63    73     1 
   63    74     1 
   63    75     1 
   63    77     1 
   63    78     1 
   64    66     1 
   64    67     1 
   64    68     1 
   64    70     1 
   64    71     1 
   64    72     1 
   64    76     1 
   65    70     1 
   65    71     1 
   65    72     1 
   65    76     1 
   66    69     1 
   67    69     1 
   68    69     1 
   69    76     1 
   70    73     1 
   70    74     1 
   70    75     1 
   71    73     1 
   71    74     1 
   71    75     1 
   76    81     1 
   76    82     1 
   76    88     1 
   77    79     1 
   77    80     1 
   78    83     1 
   78    84     1 
   78    85     1 
   78    89     1 
   78    90     1 
   79    81     1 
   79    82     1 
   79    88     1 
   80    86     1 
   80    87     1 
   80    91     1 
   80    92     1 
   81    83     1 
   81    84     1 
   81    85     1 
   81    89     1 
   81    90     1 
   82    89     1 
   82    90     1 
   83    86     1 
   83    87     1 
   83    88     1 
   84    86     1 
   84    87     1 
   84    88     1 
   85    88     1 
   88    93     1 
   88    94     1 
   88    95     1 
   89    91     1 
   89    92     1 
   90    96     1 
   90    97     1 
   91    93     1 
   91    94     1 
   91    95     1 
   92    98     1 
   92    99     1 
   93    96     1 
   93    97     1 
   94    96     1 
   94    97     1 
   95   100     1 
   95   101     1 
   95   116     1 
   96    98     1 
   96    99     1 
   97   102     1 
   97   103     1 
   97   104     1 
   97   117     1 
   97   118     1 
   98   100     1 
   98   101     1 
   98   116     1 
   99   105     1 
   99   112     1 
   99   119     1 
   99   120     1 
  100   102     1 
  100   103     1 
  100   104     1 
  100   117     1 
  100   118     1 
  101   106     1 
  101   107     1 
  101   113     1 
  101   114     1 
  101   117     1 
  101   118     1 
  102   105     1 
  102   112     1 
  102   116     1 
  103   105     1 
  103   112     1 
  103   116     1 
  104   108     1 
  104   109     1 
  104   115     1 
  104   116     1 
  105   110     1 
  105   113     1 
  105   114     1 
  106   108     1 
  106   109     1 
  106   112     1 
  107   111     1 
  107   112     1 
  107   115     1 
  108   110     1 
  108   114     1 
  109   113     1 
  110   112     1 
  110   115     1 
  111   114     1 
  113   115     1 
  116   121     1 
  116   122     1 
  116   136     1 
  117   119     1 
  117   120     1 
  118   123     1 
  118   124     1 
  118   125     1 
  118   137     1 
  118   138     1 
  119   121     1 
  119   122     1 
  119   136     1 
  120   126     1 
  120   132     1 
  120   139     1 
  120   140     1 
  121   123     1 
  121   124     1 
  121   125     1 
  121   137     1 
  121   138     1 
  122   127     1 
  122   128     1 
  122   133     1 
  122   134     1 
  122   137     1 
  122   138     1 
  123   126     1 
  123   132     1 
  123   136     1 
  124   126     1 
  124   132     1 
  124   136     1 
  125   129     1 
  125   130     1 
  125   135     1 
  125   136     1 
  126   131     1 
  126   133     1 
  126   134     1 
  127   129     1 
  127   130     1 
  127   132     1 
  128   132     1 
  128   135     1 
  129   131     1 
  129   134     1 
  130   133     1 
  131   132     1 
  131   135     1 
  133   135     1 
  136   141     1 
  136   142     1 
  136   158     1 
  137   139     1 
  137   140     1 
  138   143     1 
  138   144     1 
  138   145     1 
  138   159     1 
  138   160     1 
  139   141     1 
  139   142     1 
  139   158     1 
  140   146     1 
  140   147     1 
  140   148     1 
  140   161     1 
  140   162     1 
  141   143     1 
  141   144     1 
  141   145     1 
  141   159     1 
  141   160     1 
  142   149     1 
  142   150     1 
  142   151     1 
  142   159     1 
  142   160     1 
  143   146     1 
  143   147     1 
  143   148     1 
  143   158     1 
  144   146     1 
  144   147     1 
  144   148     1 
  144   158     1 
  145   152     1 
  145   153     1 
  145   154     1 
  145   158     1 
  146   149     1 
  146   150     1 
  146   151     1 
  147   149     1 
  147   150     1 
  147   151     1 
  148   155     1 
  148   156     1 
  148   157     1 
  149   152     1 
  149   153     1 
  149   154     1 
  150   152     1 
  150   153     1 
  150   154     1 
  152   155     1 
  152   156     1 
  152   157     1 
  153   155     1 
  153   156     1 
  153   157     1 
  158   163     1 
  158   164     1 
  158   177     1 
  159   161     1 
  159   162     1 
  160   165     1 
  160   166     1 
  160   170     1 
  160   178     1 
  160   179     1 
  161   163     1 
  161   164     1 
  161   177     1 
  162   167     1 
  162   168     1 
  162   169     1 
  162   171     1 
  162   172     1 
  162   173     1 
  163   165     1 
  163   166     1 
  163   170     1 
  163   178     1 
  163   179     1 
  164   174     1 
  164   175     1 
  164   176     1 
  164   178     1 
  164   179     1 
  165   167     1 
  165   168     1 
  165   169     1 
  165   171     1 
  165   172     1 
  165   173     1 
  165   177     1 
  166   171     1 
  166   172     1 
  166   173     1 
  166   177     1 
  167   170     1 
  168   170     1 
  169   170     1 
  170   177     1 
  171   174     1 
  171   175     1 
  171   176     1 
  172   174     1 
  172   175     1 
  172   176     1 

[ angles ]
;  ai    aj    ak funct            c0            c1            c2            c3
    2     1     3     5 
    2     1     4     5 
    2     1     5     5 
    3     1     4     5 
    3     1     5     5 
    4     1     5     5 
    1     5     6     5 
    1     5     7     5 
    1     5    21     5 
    6     5     7     5 
    6     5    21     5 
    7     5    21     5 
    5     7     8     5 
    5     7     9     5 
    5     7    10     5 
    8     7     9     5 
    8     7    10     5 
    9     7    10     5 
    7    10    11     5 
    7    10    17     5 
   11    10    17     5 
   10    11    12     5 
   10    11    13     5 
   12    11    13     5 
   11    13    14     5 
   11    13    15     5 
   14    13    15     5 
   13    15    16     5 
   13    15    19     5 
   16    15    19     5 
   10    17    18     5 
   10    17    19     5 
   18    17    19     5 
   15    19    17     5 
   15    19    20     5 
   17    19    20     5 
    5    21    22     5 
    5    21    23     5 
   22    21    23     5 
   21    23    24     5 
   21    23    25     5 
   24    23    25     5 
   23    25    26     5 
   23    25    27     5 
   23    25    43     5 
   26    25    27     5 
   26    25    43     5 
   27    25    43     5 
   25    27    28     5 
   25    27    29     5 
   25    27    30     5 
   28    27    29     5 
   28    27    30     5 
   29    27    30     5 
   27    30    31     5 
   27    30    32     5 
   27    30    33     5 
   31    30    32     5 
   31    30    33     5 
   32    30    33     5 
   30    33    34     5 
   30    33    35     5 
   30    33    36     5 
   34    33    35     5 
   34    33    36     5 
   35    33    36     5 
   33    36    37     5 
   33    36    38     5 
   33    36    39     5 
   37    36    38     5 
   37    36    39     5 
   38    36    39     5 
   36    39    40     5 
   36    39    41     5 
   36    39    42     5 
   40    39    41     5 
   40    39    42     5 
   41    39    42     5 
   25    43    44     5 
   25    43    45     5 
   44    43    45     5 
   43    45    46     5 
   43    45    47     5 
   46    45    47     5 
   45    47    48     5 
   45    47    49     5 
   45    47    57     5 
   48    47    49     5 
   48    47    57     5 
   49    47    57     5 
   47    49    50     5 
   47    49    51     5 
   47    49    52     5 
   50    49    51     5 
   50    49    52     5 
   51    49    52     5 
   49    52    53     5 
   49    52    54     5 
   53    52    54     5 
   52    54    55     5 
   52    54    56     5 
   55    54    56     5 
   47    57    58     5 
   47    57    59     5 
   58    57    59     5 
   57    59    60     5 
   57    59    61     5 
   60    59    61     5 
   59    61    62     5 
   59    61    63     5 
   59    61    76     5 
   62    61    63     5 
   62    61    76     5 
   63    61    76     5 
   61    63    64     5 
   61    63    65     5 
   61    63    69     5 
   64    63    65     5 
   64    63    69     5 
   65    63    69     5 
   63    65    66     5 
   63    65    67     5 
   63    65    68     5 
   66    65    67     5 
   66    65    68     5 
   67    65    68     5 
   63    69    70     5 
   63    69    71     5 
   63    69    72     5 
   70    69    71     5 
   70    69    72     5 
   71    69    72     5 
   69    72    73     5 
   69    72    74     5 
   69    72    75     5 
   73    72    74     5 
   73    72    75     5 
   74    72    75     5 
   61    76    77     5 
   61    76    78     5 
   77    76    78     5 
   76    78    79     5 
   76    78    80     5 
   79    78    80     5 
   78    80    81     5 
   78    80    82     5 
   78    80    88     5 
   81    80    82     5 
   81    80    88     5 
   82    80    88     5 
   80    82    83     5 
   80    82    84     5 
   80    82    85     5 
   83    82    84     5 
   83    82    85     5 
   84    82    85     5 
   82    85    86     5 
   82    85    87     5 
   86    85    87     5 
   80    88    89     5 
   80    88    90     5 
   89    88    90     5 
   88    90    91     5 
   88    90    92     5 
   91    90    92     5 
   90    92    93     5 
   90    92    94     5 
   90    92    95     5 
   93    92    94     5 
   93    92    95     5 
   94    92    95     5 
   92    95    96     5 
   92    95    97     5 
   96    95    97     5 
   95    97    98     5 
   95    97    99     5 
   98    97    99     5 
   97    99   100     5 
   97    99   101     5 
   97    99   116     5 
  100    99   101     5 
  100    99   116     5 
  101    99   116     5 
   99   101   102     5 
   99   101   103     5 
   99   101   104     5 
  102   101   103     5 
  102   101   104     5 
  103   101   104     5 
  101   104   105     5 
  101   104   112     5 
  105   104   112     5 
  104   105   106     5 
  104   105   107     5 
  106   105   107     5 
  105   107   108     5 
  105   107   109     5 
  108   107   109     5 
  107   109   110     5 
  107   109   114     5 
  110   109   114     5 
  109   110   111     5 
  104   112   113     5 
  104   112   114     5 
  113   112   114     5 
  109   114   112     5 
  109   114   115     5 
  112   114   115     5 
   99   116   117     5 
   99   116   118     5 
  117   116   118     5 
  116   118   119     5 
  116   118   120     5 
  119   118   120     5 
  118   120   121     5 
  118   120   122     5 
  118   120   136     5 
  121   120   122     5 
  121   120   136     5 
  122   120   136     5 
  120   122   123     5 
  120   122   124     5 
  120   122   125     5 
  123   122   124     5 
  123   122   125     5 
  124   122   125     5 
  122   125   126     5 
  122   125   132     5 
  126   125   132     5 
  125   126   127     5 
  125   126   128     5 
  127   126   128     5 
  126   128   129     5 
  126   128   130     5 
  129   128   130     5 
  128   130   131     5 
  128   130   134     5 
  131   130   134     5 
  125   132   133     5 
  125   132   134     5 
  133   132   134     5 
  130   134   132     5 
  130   134   135     5 
  132   134   135     5 
  120   136   137     5 
  120   136   138     5 
  137   136   138     5 
  136   138   139     5 
  136   138   140     5 
  139   138   140     5 
  138   140   141     5 
  138   140   142     5 
  138   140   158     5 
  141   140   142     5 
  141   140   158     5 
  142   140   158     5 
  140   142   143     5 
  140   142   144     5 
  140   142   145     5 
  143   142   144     5 
  143   142   145     5 
  144   142   145     5 
  142   145   146     5 
  142   145   147     5 
  142   145   148     5 
  146   145   147     5 
  146   145   148     5 
  147   145   148     5 
  145   148   149     5 
  145   148   150     5 
  145   148   151     5 
  149   148   150     5 
  149   148   151     5 
  150   148   151     5 
  148   151   152     5 
  148   151   153     5 
  148   151   154     5 
  152   151   153     5 
  152   151   154     5 
  153   151   154     5 
  151   154   155     5 
  151   154   156     5 
  151   154   157     5 
  155   154   156     5 
  155   154   157     5 
  156   154   157     5 
  140   158   159     5 
  140   158   160     5 
  159   158   160     5 
  158   160   161     5 
  158   160   162     5 
  161   160   162     5 
  160   162   163     5 
  160   162   164     5 
  160   162   177     5 
  163   162   164     5 
  163   162   177     5 
  164   162   177     5 
  162   164   165     5 
  162   164   166     5 
  162   164   170     5 
  165   164   166     5 
  165   164   170     5 
  166   164   170     5 
  164   166   167     5 
  164   166   168     5 
  164   166   169     5 
  167   166   168     5 
  167   166   169     5 
  168   166   169     5 
  164   170   171     5 
  164   170   172     5 
  164   170   173     5 
  171   170   172     5 
  171   170   173     5 
  172   170   173     5 
  170   173   174     5 
  170   173   175     5 
  170   173   176     5 
  174   173   175     5 
  174   173   176     5 
  175   173   176     5 
  162   177   178     5 
  162   177   179     5 
  178   177   179     5 

[ dihedrals ]
;  ai    aj    ak    al funct            c0            c1            c2            c3            c4            c5
    2     1     5     6     9 
    2     1     5     7     9 
    2     1     5    21     9 
    3     1     5     6     9 
    3     1     5     7     9 
    3     1     5    21     9 
    4     1     5     6     9 
    4     1     5     7     9 
    4     1     5    21     9 
    1     5     7     8     9 
    1     5     7     9     9 
    1     5     7    10     9 
    6     5     7     8     9 
    6     5     7     9     9 
    6     5     7    10     9 
   21     5     7     8     9 
   21     5     7     9     9 
   21     5     7    10     9 
    1     5    21    22     9 
    1     5    21    23     9 
    6     5    21    22     9 
    6     5    21    23     9 
    7     5    21    22     9 
    7     5    21    23     9 
    5     7    10    11     9 
    5     7    10    17     9 
    8     7    10    11     9 
    8     7    10    17     9 
    9     7    10    11     9 
    9     7    10    17     9 
    7    10    11    12     9 
    7    10    11    13     9 
   17    10    11    12     9 
   17    10    11    13     9 
    7    10    17    18     9 
    7    10    17    19     9 
   11    10    17    18     9 
   11    10    17    19     9 
   10    11    13    14     9 
   10    11    13    15     9 
   12    11    13    14     9 
   12    11    13    15     9 
   11    13    15    16     9 
   11    13    15    19     9 
   14    13    15    16     9 
   14    13    15    19     9 
   13    15    19    17     9 
   13    15    19    20     9 
   16    15    19    17     9 
   16    15    19    20     9 
   10    17    19    15     9 
   10    17    19    20     9 
   18    17    19    15     9 
   18    17    19    20     9 
    5    21    23    24     9 
    5    21    23    25     9 
   22    21    23    24     9 
   22    21    23    25     9 
   21    23    25    26     9 
   21    23    25    27     9 
   21    23    25    43     9 
   24    23    25    26     9 
   24    23    25    27     9 
   24    23    25    43     9 
   23    25    27    28     9 
   23    25    27    29     9 
   23    25    27    30     9 
   26    25    27    28     9 
   26    25    27    29     9 
   26    25    27    30     9 
   43    25    27    28     9 
   43    25    27    29     9 
   43    25    27    30     9 
   23    25    43    44     9 
   23    25    43    45     9 
   26    25    43    44     9 
   26    25    43    45     9 
   27    25    43    44     9 
   27    25    43    45     9 
   25    27    30    31     9 
   25    27    30    32     9 
   25    27    30    33     9 
   28    27    30    31     9 
   28    27    30    32     9 
   28    27    30    33     9 
   29    27    30    31     9 
   29    27    30    32     9 
   29    27    30    33     9 
   27    30    33    34     9 
   27    30    33    35     9 
   27    30    33    36     9 
   31    30    33    34     9 
   31    30    33    35     9 
   31    30    33    36     9 
   32    30    33    34     9 
   32    30    33    35     9 
   32    30    33    36     9 
   30    33    36    37     9 
   30    33    36    38     9 
   30    33    36    39     9 
   34    33    36    37     9 
   34    33    36    38     9 
   34    33    36    39     9 
   35    33    36    37     9 
   35    33    36    38     9 
   35    33    36    39     9 
   33    36    39    40     9 
   33    36    39    41     9 
   33    36    39    42     9 
   37    36    39    40     9 
   37    36    39    41     9 
   37    36    39    42     9 
   38    36    39    40     9 
   38    36    39    41     9 
   38    36    39    42     9 
   25    43    45    46     9 
   25    43    45    47     9 
   44    43    45    46     9 
   44    43    45    47     9 
   43    45    47    48     9 
   43    45    47    49     9 
   43    45    47    57     9 
   46    45    47    48     9 
   46    45    47    49     9 
   46    45    47    57     9 
   45    47    49    50     9 
   45    47    49    51     9 
   45    47    49    52     9 
   48    47    49    50     9 
   48    47    49    51     9 
   48    47    49    52     9 
   57    47    49    50     9 
   57    47    49    51     9 
   57    47    49    52     9 
   45    47    57    58     9 
   45    47    57    59     9 
   48    47    57    58     9 
   48    47    57    59     9 
   49    47    57    58     9 
   49    47    57    59     9 
   47    49    52    53     9 
   47    49    52    54     9 
   50    49    52    53     9 
   50    49    52    54     9 
   51    49    52    53     9 
   51    49    52    54     9 
   49    52    54    55     9 
   49    52    54    56     9 
   53    52    54    55     9 
   53    52    54    56     9 
   47    57    59    60     9 
   47    57    59    61     9 
   58    57    59    60     9 
   58    57    59    61     9 
   57    59    61    62     9 
   57    59    61    63     9 
   57    59    61    76     9 
   60    59    61    62     9 
   60    59    61    63     9 
   60    59    61    76     9 
   59    61    63    64     9 
   59    61    63    65     9 
   59    61    63    69     9 
   62    61    63    64     9 
   62    61    63    65     9 
   62    61    63    69     9 
   76    61    63    64     9 
   76    61    63    65     9 
   76    61    63    69     9 
   59    61    76    77     9 
   59    61    76    78     9 
   62    61    76    77     9 
   62    61    76    78     9 
   63    61    76    77     9 
   63    61    76    78     9 
   61    63    65    66     9 
   61    63    65    67     9 
   61    63    65    68     9 
   64    63    65    66     9 
   64    63    65    67     9 
   64    63    65    68     9 
   69    63    65    66     9 
   69    63    65    67     9 
   69    63    65    68     9 
   61    63    69    70     9 
   61    63    69    71     9 
   61    63    69    72     9 
   64    63    69    70     9 
   64    63    69    71     9 
   64    63    69    72     9 
   65    63    69    70     9 
   65    63    69    71     9 
   65    63    69    72     9 
   63    69    72    73     9 
   63    69    72    74     9 
   63    69    72    75     9 
   70    69    72    73     9 
   70    69    72    74     9 
   70    69    72    75     9 
   71    69    72    73     9 
   71    69    72    74     9 
   71    69    72    75     9 
   61    76    78    79     9 
   61    76    78    80     9 
   77    76    78    79     9 
   77    76    78    80     9 
   76    78    80    81     9 
   76    78    80    82     9 
   76    78    80    88     9 
   79    78    80    81     9 
   79    78    80    82     9 
   79    78    80    88     9 
   78    80    82    83     9 
   78    80    82    84     9 
   78    80    82    85     9 
   81    80    82    83     9 
   81    80    82    84     9 
   81    80    82    85     9 
   88    80    82    83     9 
   88    80    82    84     9 
   88    80    82    85     9 
   78    80    88    89     9 
   78    80    88    90     9 
   81    80    88    89     9 
   81    80    88    90     9 
   82    80    88    89     9 
   82    80    88    90     9 
   80    82    85    86     9 
   80    82    85    87     9 
   83    82    85    86     9 
   83    82    85    87     9 
   84    82    85    86     9 
   84    82    85    87     9 
   80    88    90    91     9 
   80    88    90    92     9 
   89    88    90    91     9 
   89    88    90    92     9 
   88    90    92    93     9 
   88    90    92    94     9 
   88    90    92    95     9 
   91    90    92    93     9 
   91    90    92    94     9 
   91    90    92    95     9 
   90    92    95    96     9 
   90    92    95    97     9 
   93    92    95    96     9 
   93    92    95    97     9 
   94    92    95    96     9 
   94    92    95    97     9 
   92    95    97    98     9 
   92    95    97    99     9 
   96    95    97    98     9 
   96    95    97    99     9 
   95    97    99   100     9 
   95    97    99   101     9 
   95    97    99   116     9 
   98    97    99   100     9 
   98    97    99   101     9 
   98    97    99   116     9 
   97    99   101   102     9 
   97    99   101   103     9 
   97    99   101   104     9 
  100    99   101   102     9 
  100    99   101   103     9 
  100    99   101   104     9 
  116    99   101   102     9 
  116    99   101   103     9 
  116    99   101   104     9 
   97    99   116   117     9 
   97    99   116   118     9 
  100    99   116   117     9 
  100    99   116   118     9 
  101    99   116   117     9 
  101    99   116   118     9 
   99   101   104   105     9 
   99   101   104   112     9 
  102   101   104   105     9 
  102   101   104   112     9 
  103   101   104   105     9 
  103   101   104   112     9 
  101   104   105   106     9 
  101   104   105   107     9 
  112   104   105   106     9 
  112   104   105   107     9 
  101   104   112   113     9 
  101   104   112   114     9 
  105   104   112   113     9 
  105   104   112   114     9 
  104   105   107   108     9 
  104   105   107   109     9 
  106   105   107   108     9 
  106   105   107   109     9 
  105   107   109   110     9 
  105   107   109   114     9 
  108   107   109   110     9 
  108   107   109   114     9 
  107   109   110   111     9 
  114   109   110   111     9 
  107   109   114   112     9 
  107   109   114   115     9 
  110   109   114   112     9 
  110   109   114   115     9 
  104   112   114   109     9 
  104   112   114   115     9 
  113   112   114   109     9 
  113   112   114   115     9 
   99   116   118   119     9 
   99   116   118   120     9 
  117   116   118   119     9 
  117   116   118   120     9 
  116   118   120   121     9 
  116   118   120   122     9 
  116   118   120   136     9 
  119   118   120   121     9 
  119   118   120   122     9 
  119   118   120   136     9 
  118   120   122   123     9 
  118   120   122   124     9 
  118   120   122   125     9 
  121   120   122   123     9 
  121   120   122   124     9 
  121   120   122   125     9 
  136   120   122   123     9 
  136   120   122   124     9 
  136   120   122   125     9 
  118   120   136   137     9 
  118   120   136   138     9 
  121   120   136   137     9 
  121   120   136   138     9 
  122   120   136   137     9 
  122   120   136   138     9 
  120   122   125   126     9 
  120   122   125   132     9 
  123   122   125   126     9 
  123   122   125   132     9 
  124   122   125   126     9 
  124   122   125   132     9 
  122   125   126   127     9 
  122   125   126   128     9 
  132   125   126   127     9 
  132   125   126   128     9 
  122   125   132   133     9 
  122   125   132   134     9 
  126   125   132   133     9 
  126   125   132   134     9 
  125   126   128   129     9 
  125   126   128   130     9 
  127   126   128   129     9 
  127   126   128   130     9 
  126   128   130   131     9 
  126   128   130   134     9 
  129   128   130   131     9 
  129   128   130   134     9 
  128   130   134   132     9 
  128   130   134   135     9 
  131   130   134   132     9 
  131   130   134   135     9 
  125   132   134   130     9 
  125   132   134   135     9 
  133   132   134   130     9 
  133   132   134   135     9 
  120   136   138   139     9 
  120   136   138   140     9 
  137   136   138   139     9 
  137   136   138   140     9 
  136   138   140   141     9 
  136   138   140   142     9 
  136   138   140   158     9 
  139   138   140   141     9 
  139   138   140   142     9 
  139   138   140   158     9 
  138   140   142   143     9 
  138   140   142   144     9 
  138   140   142   145     9 
  141   140   142   143     9 
  141   140   142   144     9 
  141   140   142   145     9 
  158   140   142   143     9 
  158   140   142   144     9 
  158   140   142   145     9 
  138   140   158   159     9 
  138   140   158   160     9 
  141   140   158   159     9 
  141   140   158   160     9 
  142   140   158   159     9 
  142   140   158   160     9 
  140   142   145   146     9 
  140   142   145   147     9 
  140   142   145   148     9 
  143   142   145   146     9 
  143   142   145   147     9 
  143   142   145   148     9 
  144   142   145   146     9 
  144   142   145   147     9 
  144   142   145   148     9 
  142   145   148   149     9 
  142   145   148   150     9 
  142   145   148   151     9 
  146   145   148   149     9 
  146   145   148   150     9 
  146   145   148   151     9 
  147   145   148   149     9 
  147   145   148   150     9 
  147   145   148   151     9 
  145   148   151   152     9 
  145   148   151   153     9 
  145   148   151   154     9 
  149   148   151   152     9 
  149   148   151   153     9 
  149   148   151   154     9 
  150   148   151   152     9 
  150   148   151   153     9 
  150   148   151   154     9 
  148   151   154   155     9 
  148   151   154   156     9 
  148   151   154   157     9 
  152   151   154   155     9 
  152   151   154   156     9 
  152   151   154   157     9 
  153   151   154   155     9 
  153   151   154   156     9 
  153   151   154   157     9 
  140   158   160   161     9 
  140   158   160   162     9 
  159   158   160   161     9 
  159   158   160   162     9 
  158   160   162   163     9 
  158   160   162   164     9 
  158   160   162   177     9 
  161   160   162   163     9 
  161   160   162   164     9 
  161   160   162   177     9 
  160   162   164   165     9 
  160   162   164   166     9 
  160   162   164   170     9 
  163   162   164   165     9 
  163   162   164   166     9 
  163   162   164   170     9 
  177   162   164   165     9 
  177   162   164   166     9 
  177   162   164   170     9 
  160   162   177   178     9 
  160   162   177   179     9 
  163   162   177   178     9 
  163   162   177   179     9 
  164   162   177   178     9 
  164   162   177   179     9 
  162   164   166   167     9 
  162   164   166   168     9 
  162   164   166   169     9 
  165   164   166   167     9 
  165   164   166   168     9 
  165   164   166   169     9 
  170   164   166   167     9 
  170   164   166   168     9 
  170   164   166   169     9 
  162   164   170   171     9 
  162   164   170   172     9 
  162   164   170   173     9 
  165   164   170   171     9 
  165   164   170   172     9 
  165   164   170   173     9 
  166   164   170   171     9 
  166   164   170   172     9 
  166   164   170   173     9 
  164   170   173   174     9 
  164   170   173   175     9 
  164   170   173   176     9 
  171   170   173   174     9 
  171   170   173   175     9 
  171   170   173   176     9 
  172   170   173   174     9 
  172   170   173   175     9 
  172   170   173   176     9 

[ dihedrals ]
;  ai    aj    ak    al funct            c0            c1            c2            c3
   21     5    23    22     2 
   23    21    25    24     2 
   43    25    45    44     2 
   45    43    47    46     2 
   52    49    54    53     2 
   52    54    49    53     2 
   54    52    56    55     2 
   54    52    55    56     2 
   57    47    59    58     2 
   59    57    61    60     2 
   76    61    78    77     2 
   78    76    80    79     2 
   85    82    87    86     2 
   88    80    90    89     2 
   90    88    92    91     2 
   95    92    97    96     2 
   97    95    99    98     2 
  116    99   118   117     2 
  118   116   120   119     2 
  136   120   138   137     2 
  138   136   140   139     2 
  158   140   160   159     2 
  160   158   162   161     2 
  177   162   179   178     2 

[ cmap ]
;  ai    aj    ak    al    am funct
   21    23    25    43    45     1 
   43    45    47    57    59     1 
   57    59    61    76    78     1 
   76    78    80    88    90     1 
   88    90    92    95    97     1 
   95    97    99   116   118     1 
  116   118   120   136   138     1 
  136   138   140   158   160     1 

; Include Position restraint file
#ifdef POSRES
#include "posre_Protein_chain_E.itp"
#endif

