;
;	File 'topol_Protein_chain_E.itp' was generated
;	By user: malinda (504)
;	On host: registered-ip-10-196-114-37.lifesci.nor.ou.edu
;	At date: Tue Feb  3 13:48:56 2026
;
;	This is a include topology file
;
;	Created by:
;	                    :-) GROMACS - gmx pdb2gmx, 2022.4 (-:
;	
;	Executable:   /usr/local/gromacs/bin/gmx
;	Data prefix:  /usr/local/gromacs
;	Working dir:  /Users/malinda/Desktop/TTR/simulations/new_pep/new_pep_random
;	Command line:
;	  gmx pdb2gmx -f cluster1_1.pdb -o new_pep_random.gro -water tip3p -ignh
;	Force field was read from the standard GROMACS share directory.
;

[ moleculetype ]
; Name            nrexcl
Protein_chain_E     3

[ atoms ]
;   nr       type  resnr residue  atom   cgnr     charge       mass  typeB    chargeB      massB
; residue 509 HIS rtp HSE  q +1.0
     1        NH3    509    HIS      N      1       -0.3     14.007
     2         HC    509    HIS     H1      2       0.33      1.008
     3         HC    509    HIS     H2      3       0.33      1.008
     4         HC    509    HIS     H3      4       0.33      1.008
     5        CT1    509    HIS     CA      5       0.21     12.011
     6        HB1    509    HIS     HA      5        0.1      1.008
     7        CT2    509    HIS     CB      6      -0.08     12.011
     8        HA2    509    HIS    HB1      6       0.09      1.008
     9        HA2    509    HIS    HB2      6       0.09      1.008
    10        NR2    509    HIS    ND1      6       -0.7     14.007
    11       CPH1    509    HIS     CG      6       0.22     12.011
    12       CPH2    509    HIS    CE1      6       0.25     12.011
    13        HR1    509    HIS    HE1      6       0.13      1.008
    14        NR1    509    HIS    NE2      7      -0.36     14.007
    15          H    509    HIS    HE2      7       0.32      1.008
    16       CPH1    509    HIS    CD2      7      -0.05     12.011
    17        HR3    509    HIS    HD2      7       0.09      1.008
    18          C    509    HIS      C      8       0.51     12.011
    19          O    509    HIS      O      8      -0.51    15.9994   ; qtot 1
; residue 510 GLY rtp GLY  q  0.0
    20        NH1    510    GLY      N      9      -0.47     14.007
    21          H    510    GLY     HN      9       0.31      1.008
    22        CT2    510    GLY     CA      9      -0.02     12.011
    23        HB2    510    GLY    HA1      9       0.09      1.008
    24        HB2    510    GLY    HA2      9       0.09      1.008
    25          C    510    GLY      C     10       0.51     12.011
    26          O    510    GLY      O     10      -0.51    15.9994   ; qtot 1
; residue 511 VAL rtp VAL  q  0.0
    27        NH1    511    VAL      N     11      -0.47     14.007
    28          H    511    VAL     HN     11       0.31      1.008
    29        CT1    511    VAL     CA     11       0.07     12.011
    30        HB1    511    VAL     HA     11       0.09      1.008
    31        CT1    511    VAL     CB     12      -0.09     12.011
    32        HA1    511    VAL     HB     12       0.09      1.008
    33        CT3    511    VAL    CG1     13      -0.27     12.011
    34        HA3    511    VAL   HG11     13       0.09      1.008
    35        HA3    511    VAL   HG12     13       0.09      1.008
    36        HA3    511    VAL   HG13     13       0.09      1.008
    37        CT3    511    VAL    CG2     14      -0.27     12.011
    38        HA3    511    VAL   HG21     14       0.09      1.008
    39        HA3    511    VAL   HG22     14       0.09      1.008
    40        HA3    511    VAL   HG23     14       0.09      1.008
    41          C    511    VAL      C     15       0.51     12.011
    42          O    511    VAL      O     15      -0.51    15.9994   ; qtot 1
; residue 512 VAL rtp VAL  q  0.0
    43        NH1    512    VAL      N     16      -0.47     14.007
    44          H    512    VAL     HN     16       0.31      1.008
    45        CT1    512    VAL     CA     16       0.07     12.011
    46        HB1    512    VAL     HA     16       0.09      1.008
    47        CT1    512    VAL     CB     17      -0.09     12.011
    48        HA1    512    VAL     HB     17       0.09      1.008
    49        CT3    512    VAL    CG1     18      -0.27     12.011
    50        HA3    512    VAL   HG11     18       0.09      1.008
    51        HA3    512    VAL   HG12     18       0.09      1.008
    52        HA3    512    VAL   HG13     18       0.09      1.008
    53        CT3    512    VAL    CG2     19      -0.27     12.011
    54        HA3    512    VAL   HG21     19       0.09      1.008
    55        HA3    512    VAL   HG22     19       0.09      1.008
    56        HA3    512    VAL   HG23     19       0.09      1.008
    57          C    512    VAL      C     20       0.51     12.011
    58          O    512    VAL      O     20      -0.51    15.9994   ; qtot 1
; residue 513 PHE rtp PHE  q  0.0
    59        NH1    513    PHE      N     21      -0.47     14.007
    60          H    513    PHE     HN     21       0.31      1.008
    61        CT1    513    PHE     CA     21       0.07     12.011
    62        HB1    513    PHE     HA     21       0.09      1.008
    63        CT2    513    PHE     CB     22      -0.18     12.011
    64        HA2    513    PHE    HB1     22       0.09      1.008
    65        HA2    513    PHE    HB2     22       0.09      1.008
    66         CA    513    PHE     CG     23          0     12.011
    67         CA    513    PHE    CD1     24     -0.115     12.011
    68         HP    513    PHE    HD1     24      0.115      1.008
    69         CA    513    PHE    CE1     25     -0.115     12.011
    70         HP    513    PHE    HE1     25      0.115      1.008
    71         CA    513    PHE     CZ     26     -0.115     12.011
    72         HP    513    PHE     HZ     26      0.115      1.008
    73         CA    513    PHE    CD2     27     -0.115     12.011
    74         HP    513    PHE    HD2     27      0.115      1.008
    75         CA    513    PHE    CE2     28     -0.115     12.011
    76         HP    513    PHE    HE2     28      0.115      1.008
    77          C    513    PHE      C     29       0.51     12.011
    78          O    513    PHE      O     29      -0.51    15.9994   ; qtot 1
; residue 514 LEU rtp LEU  q  0.0
    79        NH1    514    LEU      N     30      -0.47     14.007
    80          H    514    LEU     HN     30       0.31      1.008
    81        CT1    514    LEU     CA     30       0.07     12.011
    82        HB1    514    LEU     HA     30       0.09      1.008
    83        CT2    514    LEU     CB     31      -0.18     12.011
    84        HA2    514    LEU    HB1     31       0.09      1.008
    85        HA2    514    LEU    HB2     31       0.09      1.008
    86        CT1    514    LEU     CG     32      -0.09     12.011
    87        HA1    514    LEU     HG     32       0.09      1.008
    88        CT3    514    LEU    CD1     33      -0.27     12.011
    89        HA3    514    LEU   HD11     33       0.09      1.008
    90        HA3    514    LEU   HD12     33       0.09      1.008
    91        HA3    514    LEU   HD13     33       0.09      1.008
    92        CT3    514    LEU    CD2     34      -0.27     12.011
    93        HA3    514    LEU   HD21     34       0.09      1.008
    94        HA3    514    LEU   HD22     34       0.09      1.008
    95        HA3    514    LEU   HD23     34       0.09      1.008
    96          C    514    LEU      C     35       0.51     12.011
    97          O    514    LEU      O     35      -0.51    15.9994   ; qtot 1
; residue 515 HIS rtp HSE  q  0.0
    98        NH1    515    HIS      N     36      -0.47     14.007
    99          H    515    HIS     HN     36       0.31      1.008
   100        CT1    515    HIS     CA     36       0.07     12.011
   101        HB1    515    HIS     HA     36       0.09      1.008
   102        CT2    515    HIS     CB     37      -0.08     12.011
   103        HA2    515    HIS    HB1     37       0.09      1.008
   104        HA2    515    HIS    HB2     37       0.09      1.008
   105        NR2    515    HIS    ND1     37       -0.7     14.007
   106       CPH1    515    HIS     CG     37       0.22     12.011
   107       CPH2    515    HIS    CE1     37       0.25     12.011
   108        HR1    515    HIS    HE1     37       0.13      1.008
   109        NR1    515    HIS    NE2     38      -0.36     14.007
   110          H    515    HIS    HE2     38       0.32      1.008
   111       CPH1    515    HIS    CD2     38      -0.05     12.011
   112        HR3    515    HIS    HD2     38       0.09      1.008
   113          C    515    HIS      C     39       0.51     12.011
   114          O    515    HIS      O     39      -0.51    15.9994   ; qtot 1
; residue 516 VAL rtp VAL  q  0.0
   115        NH1    516    VAL      N     40      -0.47     14.007
   116          H    516    VAL     HN     40       0.31      1.008
   117        CT1    516    VAL     CA     40       0.07     12.011
   118        HB1    516    VAL     HA     40       0.09      1.008
   119        CT1    516    VAL     CB     41      -0.09     12.011
   120        HA1    516    VAL     HB     41       0.09      1.008
   121        CT3    516    VAL    CG1     42      -0.27     12.011
   122        HA3    516    VAL   HG11     42       0.09      1.008
   123        HA3    516    VAL   HG12     42       0.09      1.008
   124        HA3    516    VAL   HG13     42       0.09      1.008
   125        CT3    516    VAL    CG2     43      -0.27     12.011
   126        HA3    516    VAL   HG21     43       0.09      1.008
   127        HA3    516    VAL   HG22     43       0.09      1.008
   128        HA3    516    VAL   HG23     43       0.09      1.008
   129          C    516    VAL      C     44       0.51     12.011
   130          O    516    VAL      O     44      -0.51    15.9994   ; qtot 1
; residue 517 THR rtp THR  q  0.0
   131        NH1    517    THR      N     45      -0.47     14.007
   132          H    517    THR     HN     45       0.31      1.008
   133        CT1    517    THR     CA     45       0.07     12.011
   134        HB1    517    THR     HA     45       0.09      1.008
   135        CT1    517    THR     CB     46       0.14     12.011
   136        HA1    517    THR     HB     46       0.09      1.008
   137        OH1    517    THR    OG1     46      -0.66    15.9994
   138          H    517    THR    HG1     46       0.43      1.008
   139        CT3    517    THR    CG2     47      -0.27     12.011
   140        HA3    517    THR   HG21     47       0.09      1.008
   141        HA3    517    THR   HG22     47       0.09      1.008
   142        HA3    517    THR   HG23     47       0.09      1.008
   143          C    517    THR      C     48       0.51     12.011
   144          O    517    THR      O     48      -0.51    15.9994   ; qtot 1
; residue 518 TYR rtp TYR  q  0.0
   145        NH1    518    TYR      N     49      -0.47     14.007
   146          H    518    TYR     HN     49       0.31      1.008
   147        CT1    518    TYR     CA     49       0.07     12.011
   148        HB1    518    TYR     HA     49       0.09      1.008
   149        CT2    518    TYR     CB     50      -0.18     12.011
   150        HA2    518    TYR    HB1     50       0.09      1.008
   151        HA2    518    TYR    HB2     50       0.09      1.008
   152         CA    518    TYR     CG     51          0     12.011
   153         CA    518    TYR    CD1     52     -0.115     12.011
   154         HP    518    TYR    HD1     52      0.115      1.008
   155         CA    518    TYR    CE1     53     -0.115     12.011
   156         HP    518    TYR    HE1     53      0.115      1.008
   157         CA    518    TYR     CZ     54       0.11     12.011
   158        OH1    518    TYR     OH     54      -0.54    15.9994
   159          H    518    TYR     HH     54       0.43      1.008
   160         CA    518    TYR    CD2     55     -0.115     12.011
   161         HP    518    TYR    HD2     55      0.115      1.008
   162         CA    518    TYR    CE2     56     -0.115     12.011
   163         HP    518    TYR    HE2     56      0.115      1.008
   164          C    518    TYR      C     57       0.51     12.011
   165          O    518    TYR      O     57      -0.51    15.9994   ; qtot 1
; residue 519 VAL rtp VAL  q -1.0
   166        NH1    519    VAL      N     58      -0.47     14.007
   167          H    519    VAL     HN     58       0.31      1.008
   168        CT1    519    VAL     CA     58       0.07     12.011
   169        HB1    519    VAL     HA     58       0.09      1.008
   170        CT1    519    VAL     CB     59      -0.09     12.011
   171        HA1    519    VAL     HB     59       0.09      1.008
   172        CT3    519    VAL    CG1     60      -0.27     12.011
   173        HA3    519    VAL   HG11     60       0.09      1.008
   174        HA3    519    VAL   HG12     60       0.09      1.008
   175        HA3    519    VAL   HG13     60       0.09      1.008
   176        CT3    519    VAL    CG2     61      -0.27     12.011
   177        HA3    519    VAL   HG21     61       0.09      1.008
   178        HA3    519    VAL   HG22     61       0.09      1.008
   179        HA3    519    VAL   HG23     61       0.09      1.008
   180         CC    519    VAL      C     62       0.34     12.011
   181         OC    519    VAL    OT1     63      -0.67    15.9994
   182         OC    519    VAL    OT2     64      -0.67    15.9994   ; qtot 0

[ bonds ]
;  ai    aj funct            c0            c1            c2            c3
    1     2     1 
    1     3     1 
    1     4     1 
    1     5     1 
    5     6     1 
    5     7     1 
    5    18     1 
    7     8     1 
    7     9     1 
    7    11     1 
   10    11     1 
   10    12     1 
   11    16     1 
   12    13     1 
   12    14     1 
   14    15     1 
   14    16     1 
   16    17     1 
   18    19     1 
   18    20     1 
   20    21     1 
   20    22     1 
   22    23     1 
   22    24     1 
   22    25     1 
   25    26     1 
   25    27     1 
   27    28     1 
   27    29     1 
   29    30     1 
   29    31     1 
   29    41     1 
   31    32     1 
   31    33     1 
   31    37     1 
   33    34     1 
   33    35     1 
   33    36     1 
   37    38     1 
   37    39     1 
   37    40     1 
   41    42     1 
   41    43     1 
   43    44     1 
   43    45     1 
   45    46     1 
   45    47     1 
   45    57     1 
   47    48     1 
   47    49     1 
   47    53     1 
   49    50     1 
   49    51     1 
   49    52     1 
   53    54     1 
   53    55     1 
   53    56     1 
   57    58     1 
   57    59     1 
   59    60     1 
   59    61     1 
   61    62     1 
   61    63     1 
   61    77     1 
   63    64     1 
   63    65     1 
   63    66     1 
   66    67     1 
   66    73     1 
   67    68     1 
   67    69     1 
   69    70     1 
   69    71     1 
   71    72     1 
   71    75     1 
   73    74     1 
   73    75     1 
   75    76     1 
   77    78     1 
   77    79     1 
   79    80     1 
   79    81     1 
   81    82     1 
   81    83     1 
   81    96     1 
   83    84     1 
   83    85     1 
   83    86     1 
   86    87     1 
   86    88     1 
   86    92     1 
   88    89     1 
   88    90     1 
   88    91     1 
   92    93     1 
   92    94     1 
   92    95     1 
   96    97     1 
   96    98     1 
   98    99     1 
   98   100     1 
  100   101     1 
  100   102     1 
  100   113     1 
  102   103     1 
  102   104     1 
  102   106     1 
  105   106     1 
  105   107     1 
  106   111     1 
  107   108     1 
  107   109     1 
  109   110     1 
  109   111     1 
  111   112     1 
  113   114     1 
  113   115     1 
  115   116     1 
  115   117     1 
  117   118     1 
  117   119     1 
  117   129     1 
  119   120     1 
  119   121     1 
  119   125     1 
  121   122     1 
  121   123     1 
  121   124     1 
  125   126     1 
  125   127     1 
  125   128     1 
  129   130     1 
  129   131     1 
  131   132     1 
  131   133     1 
  133   134     1 
  133   135     1 
  133   143     1 
  135   136     1 
  135   137     1 
  135   139     1 
  137   138     1 
  139   140     1 
  139   141     1 
  139   142     1 
  143   144     1 
  143   145     1 
  145   146     1 
  145   147     1 
  147   148     1 
  147   149     1 
  147   164     1 
  149   150     1 
  149   151     1 
  149   152     1 
  152   153     1 
  152   160     1 
  153   154     1 
  153   155     1 
  155   156     1 
  155   157     1 
  157   158     1 
  157   162     1 
  158   159     1 
  160   161     1 
  160   162     1 
  162   163     1 
  164   165     1 
  164   166     1 
  166   167     1 
  166   168     1 
  168   169     1 
  168   170     1 
  168   180     1 
  170   171     1 
  170   172     1 
  170   176     1 
  172   173     1 
  172   174     1 
  172   175     1 
  176   177     1 
  176   178     1 
  176   179     1 
  180   181     1 
  180   182     1 

[ pairs ]
;  ai    aj funct            c0            c1            c2            c3
    1     8     1 
    1     9     1 
    1    11     1 
    1    19     1 
    1    20     1 
    2     6     1 
    2     7     1 
    2    18     1 
    3     6     1 
    3     7     1 
    3    18     1 
    4     6     1 
    4     7     1 
    4    18     1 
    5    10     1 
    5    16     1 
    5    21     1 
    5    22     1 
    6     8     1 
    6     9     1 
    6    11     1 
    6    19     1 
    6    20     1 
    7    12     1 
    7    14     1 
    7    17     1 
    7    19     1 
    7    20     1 
    8    10     1 
    8    16     1 
    8    18     1 
    9    10     1 
    9    16     1 
    9    18     1 
   10    15     1 
   10    17     1 
   11    13     1 
   11    15     1 
   11    18     1 
   12    17     1 
   13    15     1 
   13    16     1 
   15    17     1 
   18    23     1 
   18    24     1 
   18    25     1 
   19    21     1 
   19    22     1 
   20    26     1 
   20    27     1 
   21    23     1 
   21    24     1 
   21    25     1 
   22    28     1 
   22    29     1 
   23    26     1 
   23    27     1 
   24    26     1 
   24    27     1 
   25    30     1 
   25    31     1 
   25    41     1 
   26    28     1 
   26    29     1 
   27    32     1 
   27    33     1 
   27    37     1 
   27    42     1 
   27    43     1 
   28    30     1 
   28    31     1 
   28    41     1 
   29    34     1 
   29    35     1 
   29    36     1 
   29    38     1 
   29    39     1 
   29    40     1 
   29    44     1 
   29    45     1 
   30    32     1 
   30    33     1 
   30    37     1 
   30    42     1 
   30    43     1 
   31    42     1 
   31    43     1 
   32    34     1 
   32    35     1 
   32    36     1 
   32    38     1 
   32    39     1 
   32    40     1 
   32    41     1 
   33    38     1 
   33    39     1 
   33    40     1 
   33    41     1 
   34    37     1 
   35    37     1 
   36    37     1 
   37    41     1 
   41    46     1 
   41    47     1 
   41    57     1 
   42    44     1 
   42    45     1 
   43    48     1 
   43    49     1 
   43    53     1 
   43    58     1 
   43    59     1 
   44    46     1 
   44    47     1 
   44    57     1 
   45    50     1 
   45    51     1 
   45    52     1 
   45    54     1 
   45    55     1 
   45    56     1 
   45    60     1 
   45    61     1 
   46    48     1 
   46    49     1 
   46    53     1 
   46    58     1 
   46    59     1 
   47    58     1 
   47    59     1 
   48    50     1 
   48    51     1 
   48    52     1 
   48    54     1 
   48    55     1 
   48    56     1 
   48    57     1 
   49    54     1 
   49    55     1 
   49    56     1 
   49    57     1 
   50    53     1 
   51    53     1 
   52    53     1 
   53    57     1 
   57    62     1 
   57    63     1 
   57    77     1 
   58    60     1 
   58    61     1 
   59    64     1 
   59    65     1 
   59    66     1 
   59    78     1 
   59    79     1 
   60    62     1 
   60    63     1 
   60    77     1 
   61    67     1 
   61    73     1 
   61    80     1 
   61    81     1 
   62    64     1 
   62    65     1 
   62    66     1 
   62    78     1 
   62    79     1 
   63    68     1 
   63    69     1 
   63    74     1 
   63    75     1 
   63    78     1 
   63    79     1 
   64    67     1 
   64    73     1 
   64    77     1 
   65    67     1 
   65    73     1 
   65    77     1 
   66    70     1 
   66    71     1 
   66    76     1 
   66    77     1 
   67    72     1 
   67    74     1 
   67    75     1 
   68    70     1 
   68    71     1 
   68    73     1 
   69    73     1 
   69    76     1 
   70    72     1 
   70    75     1 
   71    74     1 
   72    73     1 
   72    76     1 
   74    76     1 
   77    82     1 
   77    83     1 
   77    96     1 
   78    80     1 
   78    81     1 
   79    84     1 
   79    85     1 
   79    86     1 
   79    97     1 
   79    98     1 
   80    82     1 
   80    83     1 
   80    96     1 
   81    87     1 
   81    88     1 
   81    92     1 
   81    99     1 
   81   100     1 
   82    84     1 
   82    85     1 
   82    86     1 
   82    97     1 
   82    98     1 
   83    89     1 
   83    90     1 
   83    91     1 
   83    93     1 
   83    94     1 
   83    95     1 
   83    97     1 
   83    98     1 
   84    87     1 
   84    88     1 
   84    92     1 
   84    96     1 
   85    87     1 
   85    88     1 
   85    92     1 
   85    96     1 
   86    96     1 
   87    89     1 
   87    90     1 
   87    91     1 
   87    93     1 
   87    94     1 
   87    95     1 
   88    93     1 
   88    94     1 
   88    95     1 
   89    92     1 
   90    92     1 
   91    92     1 
   96   101     1 
   96   102     1 
   96   113     1 
   97    99     1 
   97   100     1 
   98   103     1 
   98   104     1 
   98   106     1 
   98   114     1 
   98   115     1 
   99   101     1 
   99   102     1 
   99   113     1 
  100   105     1 
  100   111     1 
  100   116     1 
  100   117     1 
  101   103     1 
  101   104     1 
  101   106     1 
  101   114     1 
  101   115     1 
  102   107     1 
  102   109     1 
  102   112     1 
  102   114     1 
  102   115     1 
  103   105     1 
  103   111     1 
  103   113     1 
  104   105     1 
  104   111     1 
  104   113     1 
  105   110     1 
  105   112     1 
  106   108     1 
  106   110     1 
  106   113     1 
  107   112     1 
  108   110     1 
  108   111     1 
  110   112     1 
  113   118     1 
  113   119     1 
  113   129     1 
  114   116     1 
  114   117     1 
  115   120     1 
  115   121     1 
  115   125     1 
  115   130     1 
  115   131     1 
  116   118     1 
  116   119     1 
  116   129     1 
  117   122     1 
  117   123     1 
  117   124     1 
  117   126     1 
  117   127     1 
  117   128     1 
  117   132     1 
  117   133     1 
  118   120     1 
  118   121     1 
  118   125     1 
  118   130     1 
  118   131     1 
  119   130     1 
  119   131     1 
  120   122     1 
  120   123     1 
  120   124     1 
  120   126     1 
  120   127     1 
  120   128     1 
  120   129     1 
  121   126     1 
  121   127     1 
  121   128     1 
  121   129     1 
  122   125     1 
  123   125     1 
  124   125     1 
  125   129     1 
  129   134     1 
  129   135     1 
  129   143     1 
  130   132     1 
  130   133     1 
  131   136     1 
  131   137     1 
  131   139     1 
  131   144     1 
  131   145     1 
  132   134     1 
  132   135     1 
  132   143     1 
  133   138     1 
  133   140     1 
  133   141     1 
  133   142     1 
  133   146     1 
  133   147     1 
  134   136     1 
  134   137     1 
  134   139     1 
  134   144     1 
  134   145     1 
  135   144     1 
  135   145     1 
  136   138     1 
  136   140     1 
  136   141     1 
  136   142     1 
  136   143     1 
  137   140     1 
  137   141     1 
  137   142     1 
  137   143     1 
  138   139     1 
  139   143     1 
  143   148     1 
  143   149     1 
  143   164     1 
  144   146     1 
  144   147     1 
  145   150     1 
  145   151     1 
  145   152     1 
  145   165     1 
  145   166     1 
  146   148     1 
  146   149     1 
  146   164     1 
  147   153     1 
  147   160     1 
  147   167     1 
  147   168     1 
  148   150     1 
  148   151     1 
  148   152     1 
  148   165     1 
  148   166     1 
  149   154     1 
  149   155     1 
  149   161     1 
  149   162     1 
  149   165     1 
  149   166     1 
  150   153     1 
  150   160     1 
  150   164     1 
  151   153     1 
  151   160     1 
  151   164     1 
  152   156     1 
  152   157     1 
  152   163     1 
  152   164     1 
  153   158     1 
  153   161     1 
  153   162     1 
  154   156     1 
  154   157     1 
  154   160     1 
  155   159     1 
  155   160     1 
  155   163     1 
  156   158     1 
  156   162     1 
  157   161     1 
  158   160     1 
  158   163     1 
  159   162     1 
  161   163     1 
  164   169     1 
  164   170     1 
  164   180     1 
  165   167     1 
  165   168     1 
  166   171     1 
  166   172     1 
  166   176     1 
  166   181     1 
  166   182     1 
  167   169     1 
  167   170     1 
  167   180     1 
  168   173     1 
  168   174     1 
  168   175     1 
  168   177     1 
  168   178     1 
  168   179     1 
  169   171     1 
  169   172     1 
  169   176     1 
  169   181     1 
  169   182     1 
  170   181     1 
  170   182     1 
  171   173     1 
  171   174     1 
  171   175     1 
  171   177     1 
  171   178     1 
  171   179     1 
  171   180     1 
  172   177     1 
  172   178     1 
  172   179     1 
  172   180     1 
  173   176     1 
  174   176     1 
  175   176     1 
  176   180     1 

[ angles ]
;  ai    aj    ak funct            c0            c1            c2            c3
    2     1     3     5 
    2     1     4     5 
    2     1     5     5 
    3     1     4     5 
    3     1     5     5 
    4     1     5     5 
    1     5     6     5 
    1     5     7     5 
    1     5    18     5 
    6     5     7     5 
    6     5    18     5 
    7     5    18     5 
    5     7     8     5 
    5     7     9     5 
    5     7    11     5 
    8     7     9     5 
    8     7    11     5 
    9     7    11     5 
   11    10    12     5 
    7    11    10     5 
    7    11    16     5 
   10    11    16     5 
   10    12    13     5 
   10    12    14     5 
   13    12    14     5 
   12    14    15     5 
   12    14    16     5 
   15    14    16     5 
   11    16    14     5 
   11    16    17     5 
   14    16    17     5 
    5    18    19     5 
    5    18    20     5 
   19    18    20     5 
   18    20    21     5 
   18    20    22     5 
   21    20    22     5 
   20    22    23     5 
   20    22    24     5 
   20    22    25     5 
   23    22    24     5 
   23    22    25     5 
   24    22    25     5 
   22    25    26     5 
   22    25    27     5 
   26    25    27     5 
   25    27    28     5 
   25    27    29     5 
   28    27    29     5 
   27    29    30     5 
   27    29    31     5 
   27    29    41     5 
   30    29    31     5 
   30    29    41     5 
   31    29    41     5 
   29    31    32     5 
   29    31    33     5 
   29    31    37     5 
   32    31    33     5 
   32    31    37     5 
   33    31    37     5 
   31    33    34     5 
   31    33    35     5 
   31    33    36     5 
   34    33    35     5 
   34    33    36     5 
   35    33    36     5 
   31    37    38     5 
   31    37    39     5 
   31    37    40     5 
   38    37    39     5 
   38    37    40     5 
   39    37    40     5 
   29    41    42     5 
   29    41    43     5 
   42    41    43     5 
   41    43    44     5 
   41    43    45     5 
   44    43    45     5 
   43    45    46     5 
   43    45    47     5 
   43    45    57     5 
   46    45    47     5 
   46    45    57     5 
   47    45    57     5 
   45    47    48     5 
   45    47    49     5 
   45    47    53     5 
   48    47    49     5 
   48    47    53     5 
   49    47    53     5 
   47    49    50     5 
   47    49    51     5 
   47    49    52     5 
   50    49    51     5 
   50    49    52     5 
   51    49    52     5 
   47    53    54     5 
   47    53    55     5 
   47    53    56     5 
   54    53    55     5 
   54    53    56     5 
   55    53    56     5 
   45    57    58     5 
   45    57    59     5 
   58    57    59     5 
   57    59    60     5 
   57    59    61     5 
   60    59    61     5 
   59    61    62     5 
   59    61    63     5 
   59    61    77     5 
   62    61    63     5 
   62    61    77     5 
   63    61    77     5 
   61    63    64     5 
   61    63    65     5 
   61    63    66     5 
   64    63    65     5 
   64    63    66     5 
   65    63    66     5 
   63    66    67     5 
   63    66    73     5 
   67    66    73     5 
   66    67    68     5 
   66    67    69     5 
   68    67    69     5 
   67    69    70     5 
   67    69    71     5 
   70    69    71     5 
   69    71    72     5 
   69    71    75     5 
   72    71    75     5 
   66    73    74     5 
   66    73    75     5 
   74    73    75     5 
   71    75    73     5 
   71    75    76     5 
   73    75    76     5 
   61    77    78     5 
   61    77    79     5 
   78    77    79     5 
   77    79    80     5 
   77    79    81     5 
   80    79    81     5 
   79    81    82     5 
   79    81    83     5 
   79    81    96     5 
   82    81    83     5 
   82    81    96     5 
   83    81    96     5 
   81    83    84     5 
   81    83    85     5 
   81    83    86     5 
   84    83    85     5 
   84    83    86     5 
   85    83    86     5 
   83    86    87     5 
   83    86    88     5 
   83    86    92     5 
   87    86    88     5 
   87    86    92     5 
   88    86    92     5 
   86    88    89     5 
   86    88    90     5 
   86    88    91     5 
   89    88    90     5 
   89    88    91     5 
   90    88    91     5 
   86    92    93     5 
   86    92    94     5 
   86    92    95     5 
   93    92    94     5 
   93    92    95     5 
   94    92    95     5 
   81    96    97     5 
   81    96    98     5 
   97    96    98     5 
   96    98    99     5 
   96    98   100     5 
   99    98   100     5 
   98   100   101     5 
   98   100   102     5 
   98   100   113     5 
  101   100   102     5 
  101   100   113     5 
  102   100   113     5 
  100   102   103     5 
  100   102   104     5 
  100   102   106     5 
  103   102   104     5 
  103   102   106     5 
  104   102   106     5 
  106   105   107     5 
  102   106   105     5 
  102   106   111     5 
  105   106   111     5 
  105   107   108     5 
  105   107   109     5 
  108   107   109     5 
  107   109   110     5 
  107   109   111     5 
  110   109   111     5 
  106   111   109     5 
  106   111   112     5 
  109   111   112     5 
  100   113   114     5 
  100   113   115     5 
  114   113   115     5 
  113   115   116     5 
  113   115   117     5 
  116   115   117     5 
  115   117   118     5 
  115   117   119     5 
  115   117   129     5 
  118   117   119     5 
  118   117   129     5 
  119   117   129     5 
  117   119   120     5 
  117   119   121     5 
  117   119   125     5 
  120   119   121     5 
  120   119   125     5 
  121   119   125     5 
  119   121   122     5 
  119   121   123     5 
  119   121   124     5 
  122   121   123     5 
  122   121   124     5 
  123   121   124     5 
  119   125   126     5 
  119   125   127     5 
  119   125   128     5 
  126   125   127     5 
  126   125   128     5 
  127   125   128     5 
  117   129   130     5 
  117   129   131     5 
  130   129   131     5 
  129   131   132     5 
  129   131   133     5 
  132   131   133     5 
  131   133   134     5 
  131   133   135     5 
  131   133   143     5 
  134   133   135     5 
  134   133   143     5 
  135   133   143     5 
  133   135   136     5 
  133   135   137     5 
  133   135   139     5 
  136   135   137     5 
  136   135   139     5 
  137   135   139     5 
  135   137   138     5 
  135   139   140     5 
  135   139   141     5 
  135   139   142     5 
  140   139   141     5 
  140   139   142     5 
  141   139   142     5 
  133   143   144     5 
  133   143   145     5 
  144   143   145     5 
  143   145   146     5 
  143   145   147     5 
  146   145   147     5 
  145   147   148     5 
  145   147   149     5 
  145   147   164     5 
  148   147   149     5 
  148   147   164     5 
  149   147   164     5 
  147   149   150     5 
  147   149   151     5 
  147   149   152     5 
  150   149   151     5 
  150   149   152     5 
  151   149   152     5 
  149   152   153     5 
  149   152   160     5 
  153   152   160     5 
  152   153   154     5 
  152   153   155     5 
  154   153   155     5 
  153   155   156     5 
  153   155   157     5 
  156   155   157     5 
  155   157   158     5 
  155   157   162     5 
  158   157   162     5 
  157   158   159     5 
  152   160   161     5 
  152   160   162     5 
  161   160   162     5 
  157   162   160     5 
  157   162   163     5 
  160   162   163     5 
  147   164   165     5 
  147   164   166     5 
  165   164   166     5 
  164   166   167     5 
  164   166   168     5 
  167   166   168     5 
  166   168   169     5 
  166   168   170     5 
  166   168   180     5 
  169   168   170     5 
  169   168   180     5 
  170   168   180     5 
  168   170   171     5 
  168   170   172     5 
  168   170   176     5 
  171   170   172     5 
  171   170   176     5 
  172   170   176     5 
  170   172   173     5 
  170   172   174     5 
  170   172   175     5 
  173   172   174     5 
  173   172   175     5 
  174   172   175     5 
  170   176   177     5 
  170   176   178     5 
  170   176   179     5 
  177   176   178     5 
  177   176   179     5 
  178   176   179     5 
  168   180   181     5 
  168   180   182     5 
  181   180   182     5 

[ dihedrals ]
;  ai    aj    ak    al funct            c0            c1            c2            c3            c4            c5
    2     1     5     6     9 
    2     1     5     7     9 
    2     1     5    18     9 
    3     1     5     6     9 
    3     1     5     7     9 
    3     1     5    18     9 
    4     1     5     6     9 
    4     1     5     7     9 
    4     1     5    18     9 
    1     5     7     8     9 
    1     5     7     9     9 
    1     5     7    11     9 
    6     5     7     8     9 
    6     5     7     9     9 
    6     5     7    11     9 
   18     5     7     8     9 
   18     5     7     9     9 
   18     5     7    11     9 
    1     5    18    19     9 
    1     5    18    20     9 
    6     5    18    19     9 
    6     5    18    20     9 
    7     5    18    19     9 
    7     5    18    20     9 
    5     7    11    10     9 
    5     7    11    16     9 
    8     7    11    10     9 
    8     7    11    16     9 
    9     7    11    10     9 
    9     7    11    16     9 
   12    10    11     7     9 
   12    10    11    16     9 
   11    10    12    13     9 
   11    10    12    14     9 
    7    11    16    14     9 
    7    11    16    17     9 
   10    11    16    14     9 
   10    11    16    17     9 
   10    12    14    15     9 
   10    12    14    16     9 
   13    12    14    15     9 
   13    12    14    16     9 
   12    14    16    11     9 
   12    14    16    17     9 
   15    14    16    11     9 
   15    14    16    17     9 
    5    18    20    21     9 
    5    18    20    22     9 
   19    18    20    21     9 
   19    18    20    22     9 
   18    20    22    23     9 
   18    20    22    24     9 
   18    20    22    25     9 
   21    20    22    23     9 
   21    20    22    24     9 
   21    20    22    25     9 
   20    22    25    26     9 
   20    22    25    27     9 
   23    22    25    26     9 
   23    22    25    27     9 
   24    22    25    26     9 
   24    22    25    27     9 
   22    25    27    28     9 
   22    25    27    29     9 
   26    25    27    28     9 
   26    25    27    29     9 
   25    27    29    30     9 
   25    27    29    31     9 
   25    27    29    41     9 
   28    27    29    30     9 
   28    27    29    31     9 
   28    27    29    41     9 
   27    29    31    32     9 
   27    29    31    33     9 
   27    29    31    37     9 
   30    29    31    32     9 
   30    29    31    33     9 
   30    29    31    37     9 
   41    29    31    32     9 
   41    29    31    33     9 
   41    29    31    37     9 
   27    29    41    42     9 
   27    29    41    43     9 
   30    29    41    42     9 
   30    29    41    43     9 
   31    29    41    42     9 
   31    29    41    43     9 
   29    31    33    34     9 
   29    31    33    35     9 
   29    31    33    36     9 
   32    31    33    34     9 
   32    31    33    35     9 
   32    31    33    36     9 
   37    31    33    34     9 
   37    31    33    35     9 
   37    31    33    36     9 
   29    31    37    38     9 
   29    31    37    39     9 
   29    31    37    40     9 
   32    31    37    38     9 
   32    31    37    39     9 
   32    31    37    40     9 
   33    31    37    38     9 
   33    31    37    39     9 
   33    31    37    40     9 
   29    41    43    44     9 
   29    41    43    45     9 
   42    41    43    44     9 
   42    41    43    45     9 
   41    43    45    46     9 
   41    43    45    47     9 
   41    43    45    57     9 
   44    43    45    46     9 
   44    43    45    47     9 
   44    43    45    57     9 
   43    45    47    48     9 
   43    45    47    49     9 
   43    45    47    53     9 
   46    45    47    48     9 
   46    45    47    49     9 
   46    45    47    53     9 
   57    45    47    48     9 
   57    45    47    49     9 
   57    45    47    53     9 
   43    45    57    58     9 
   43    45    57    59     9 
   46    45    57    58     9 
   46    45    57    59     9 
   47    45    57    58     9 
   47    45    57    59     9 
   45    47    49    50     9 
   45    47    49    51     9 
   45    47    49    52     9 
   48    47    49    50     9 
   48    47    49    51     9 
   48    47    49    52     9 
   53    47    49    50     9 
   53    47    49    51     9 
   53    47    49    52     9 
   45    47    53    54     9 
   45    47    53    55     9 
   45    47    53    56     9 
   48    47    53    54     9 
   48    47    53    55     9 
   48    47    53    56     9 
   49    47    53    54     9 
   49    47    53    55     9 
   49    47    53    56     9 
   45    57    59    60     9 
   45    57    59    61     9 
   58    57    59    60     9 
   58    57    59    61     9 
   57    59    61    62     9 
   57    59    61    63     9 
   57    59    61    77     9 
   60    59    61    62     9 
   60    59    61    63     9 
   60    59    61    77     9 
   59    61    63    64     9 
   59    61    63    65     9 
   59    61    63    66     9 
   62    61    63    64     9 
   62    61    63    65     9 
   62    61    63    66     9 
   77    61    63    64     9 
   77    61    63    65     9 
   77    61    63    66     9 
   59    61    77    78     9 
   59    61    77    79     9 
   62    61    77    78     9 
   62    61    77    79     9 
   63    61    77    78     9 
   63    61    77    79     9 
   61    63    66    67     9 
   61    63    66    73     9 
   64    63    66    67     9 
   64    63    66    73     9 
   65    63    66    67     9 
   65    63    66    73     9 
   63    66    67    68     9 
   63    66    67    69     9 
   73    66    67    68     9 
   73    66    67    69     9 
   63    66    73    74     9 
   63    66    73    75     9 
   67    66    73    74     9 
   67    66    73    75     9 
   66    67    69    70     9 
   66    67    69    71     9 
   68    67    69    70     9 
   68    67    69    71     9 
   67    69    71    72     9 
   67    69    71    75     9 
   70    69    71    72     9 
   70    69    71    75     9 
   69    71    75    73     9 
   69    71    75    76     9 
   72    71    75    73     9 
   72    71    75    76     9 
   66    73    75    71     9 
   66    73    75    76     9 
   74    73    75    71     9 
   74    73    75    76     9 
   61    77    79    80     9 
   61    77    79    81     9 
   78    77    79    80     9 
   78    77    79    81     9 
   77    79    81    82     9 
   77    79    81    83     9 
   77    79    81    96     9 
   80    79    81    82     9 
   80    79    81    83     9 
   80    79    81    96     9 
   79    81    83    84     9 
   79    81    83    85     9 
   79    81    83    86     9 
   82    81    83    84     9 
   82    81    83    85     9 
   82    81    83    86     9 
   96    81    83    84     9 
   96    81    83    85     9 
   96    81    83    86     9 
   79    81    96    97     9 
   79    81    96    98     9 
   82    81    96    97     9 
   82    81    96    98     9 
   83    81    96    97     9 
   83    81    96    98     9 
   81    83    86    87     9 
   81    83    86    88     9 
   81    83    86    92     9 
   84    83    86    87     9 
   84    83    86    88     9 
   84    83    86    92     9 
   85    83    86    87     9 
   85    83    86    88     9 
   85    83    86    92     9 
   83    86    88    89     9 
   83    86    88    90     9 
   83    86    88    91     9 
   87    86    88    89     9 
   87    86    88    90     9 
   87    86    88    91     9 
   92    86    88    89     9 
   92    86    88    90     9 
   92    86    88    91     9 
   83    86    92    93     9 
   83    86    92    94     9 
   83    86    92    95     9 
   87    86    92    93     9 
   87    86    92    94     9 
   87    86    92    95     9 
   88    86    92    93     9 
   88    86    92    94     9 
   88    86    92    95     9 
   81    96    98    99     9 
   81    96    98   100     9 
   97    96    98    99     9 
   97    96    98   100     9 
   96    98   100   101     9 
   96    98   100   102     9 
   96    98   100   113     9 
   99    98   100   101     9 
   99    98   100   102     9 
   99    98   100   113     9 
   98   100   102   103     9 
   98   100   102   104     9 
   98   100   102   106     9 
  101   100   102   103     9 
  101   100   102   104     9 
  101   100   102   106     9 
  113   100   102   103     9 
  113   100   102   104     9 
  113   100   102   106     9 
   98   100   113   114     9 
   98   100   113   115     9 
  101   100   113   114     9 
  101   100   113   115     9 
  102   100   113   114     9 
  102   100   113   115     9 
  100   102   106   105     9 
  100   102   106   111     9 
  103   102   106   105     9 
  103   102   106   111     9 
  104   102   106   105     9 
  104   102   106   111     9 
  107   105   106   102     9 
  107   105   106   111     9 
  106   105   107   108     9 
  106   105   107   109     9 
  102   106   111   109     9 
  102   106   111   112     9 
  105   106   111   109     9 
  105   106   111   112     9 
  105   107   109   110     9 
  105   107   109   111     9 
  108   107   109   110     9 
  108   107   109   111     9 
  107   109   111   106     9 
  107   109   111   112     9 
  110   109   111   106     9 
  110   109   111   112     9 
  100   113   115   116     9 
  100   113   115   117     9 
  114   113   115   116     9 
  114   113   115   117     9 
  113   115   117   118     9 
  113   115   117   119     9 
  113   115   117   129     9 
  116   115   117   118     9 
  116   115   117   119     9 
  116   115   117   129     9 
  115   117   119   120     9 
  115   117   119   121     9 
  115   117   119   125     9 
  118   117   119   120     9 
  118   117   119   121     9 
  118   117   119   125     9 
  129   117   119   120     9 
  129   117   119   121     9 
  129   117   119   125     9 
  115   117   129   130     9 
  115   117   129   131     9 
  118   117   129   130     9 
  118   117   129   131     9 
  119   117   129   130     9 
  119   117   129   131     9 
  117   119   121   122     9 
  117   119   121   123     9 
  117   119   121   124     9 
  120   119   121   122     9 
  120   119   121   123     9 
  120   119   121   124     9 
  125   119   121   122     9 
  125   119   121   123     9 
  125   119   121   124     9 
  117   119   125   126     9 
  117   119   125   127     9 
  117   119   125   128     9 
  120   119   125   126     9 
  120   119   125   127     9 
  120   119   125   128     9 
  121   119   125   126     9 
  121   119   125   127     9 
  121   119   125   128     9 
  117   129   131   132     9 
  117   129   131   133     9 
  130   129   131   132     9 
  130   129   131   133     9 
  129   131   133   134     9 
  129   131   133   135     9 
  129   131   133   143     9 
  132   131   133   134     9 
  132   131   133   135     9 
  132   131   133   143     9 
  131   133   135   136     9 
  131   133   135   137     9 
  131   133   135   139     9 
  134   133   135   136     9 
  134   133   135   137     9 
  134   133   135   139     9 
  143   133   135   136     9 
  143   133   135   137     9 
  143   133   135   139     9 
  131   133   143   144     9 
  131   133   143   145     9 
  134   133   143   144     9 
  134   133   143   145     9 
  135   133   143   144     9 
  135   133   143   145     9 
  133   135   137   138     9 
  136   135   137   138     9 
  139   135   137   138     9 
  133   135   139   140     9 
  133   135   139   141     9 
  133   135   139   142     9 
  136   135   139   140     9 
  136   135   139   141     9 
  136   135   139   142     9 
  137   135   139   140     9 
  137   135   139   141     9 
  137   135   139   142     9 
  133   143   145   146     9 
  133   143   145   147     9 
  144   143   145   146     9 
  144   143   145   147     9 
  143   145   147   148     9 
  143   145   147   149     9 
  143   145   147   164     9 
  146   145   147   148     9 
  146   145   147   149     9 
  146   145   147   164     9 
  145   147   149   150     9 
  145   147   149   151     9 
  145   147   149   152     9 
  148   147   149   150     9 
  148   147   149   151     9 
  148   147   149   152     9 
  164   147   149   150     9 
  164   147   149   151     9 
  164   147   149   152     9 
  145   147   164   165     9 
  145   147   164   166     9 
  148   147   164   165     9 
  148   147   164   166     9 
  149   147   164   165     9 
  149   147   164   166     9 
  147   149   152   153     9 
  147   149   152   160     9 
  150   149   152   153     9 
  150   149   152   160     9 
  151   149   152   153     9 
  151   149   152   160     9 
  149   152   153   154     9 
  149   152   153   155     9 
  160   152   153   154     9 
  160   152   153   155     9 
  149   152   160   161     9 
  149   152   160   162     9 
  153   152   160   161     9 
  153   152   160   162     9 
  152   153   155   156     9 
  152   153   155   157     9 
  154   153   155   156     9 
  154   153   155   157     9 
  153   155   157   158     9 
  153   155   157   162     9 
  156   155   157   158     9 
  156   155   157   162     9 
  155   157   158   159     9 
  162   157   158   159     9 
  155   157   162   160     9 
  155   157   162   163     9 
  158   157   162   160     9 
  158   157   162   163     9 
  152   160   162   157     9 
  152   160   162   163     9 
  161   160   162   157     9 
  161   160   162   163     9 
  147   164   166   167     9 
  147   164   166   168     9 
  165   164   166   167     9 
  165   164   166   168     9 
  164   166   168   169     9 
  164   166   168   170     9 
  164   166   168   180     9 
  167   166   168   169     9 
  167   166   168   170     9 
  167   166   168   180     9 
  166   168   170   171     9 
  166   168   170   172     9 
  166   168   170   176     9 
  169   168   170   171     9 
  169   168   170   172     9 
  169   168   170   176     9 
  180   168   170   171     9 
  180   168   170   172     9 
  180   168   170   176     9 
  166   168   180   181     9 
  166   168   180   182     9 
  169   168   180   181     9 
  169   168   180   182     9 
  170   168   180   181     9 
  170   168   180   182     9 
  168   170   172   173     9 
  168   170   172   174     9 
  168   170   172   175     9 
  171   170   172   173     9 
  171   170   172   174     9 
  171   170   172   175     9 
  176   170   172   173     9 
  176   170   172   174     9 
  176   170   172   175     9 
  168   170   176   177     9 
  168   170   176   178     9 
  168   170   176   179     9 
  171   170   176   177     9 
  171   170   176   178     9 
  171   170   176   179     9 
  172   170   176   177     9 
  172   170   176   178     9 
  172   170   176   179     9 

[ dihedrals ]
;  ai    aj    ak    al funct            c0            c1            c2            c3
   12    10    14    13     2 
   12    14    10    13     2 
   14    12    16    15     2 
   14    16    12    15     2 
   16    11    14    17     2 
   16    14    11    17     2 
   18     5    20    19     2 
   20    18    22    21     2 
   25    22    27    26     2 
   27    25    29    28     2 
   41    29    43    42     2 
   43    41    45    44     2 
   57    45    59    58     2 
   59    57    61    60     2 
   77    61    79    78     2 
   79    77    81    80     2 
   96    81    98    97     2 
   98    96   100    99     2 
  107   105   109   108     2 
  107   109   105   108     2 
  109   107   111   110     2 
  109   111   107   110     2 
  111   106   109   112     2 
  111   109   106   112     2 
  113   100   115   114     2 
  115   113   117   116     2 
  129   117   131   130     2 
  131   129   133   132     2 
  143   133   145   144     2 
  145   143   147   146     2 
  164   147   166   165     2 
  166   164   168   167     2 
  180   168   182   181     2 

[ cmap ]
;  ai    aj    ak    al    am funct
   18    20    22    25    27     1 
   25    27    29    41    43     1 
   41    43    45    57    59     1 
   57    59    61    77    79     1 
   77    79    81    96    98     1 
   96    98   100   113   115     1 
  113   115   117   129   131     1 
  129   131   133   143   145     1 
  143   145   147   164   166     1 

; Include Position restraint file
#ifdef POSRES
#include "posre_Protein_chain_E.itp"
#endif

