;
;	File 'topol_Protein_chain_E.itp' was generated
;	By user: malinda7066 (501)
;	On host: Malindas-MacBook-Pro.local
;	At date: Fri Jan 23 19:15:10 2026
;
;	This is a include topology file
;
;	Created by:
;	                     :-) GROMACS - gmx pdb2gmx, 2022 (-:
;	
;	Executable:   /usr/local/gromacs/bin/gmx
;	Data prefix:  /usr/local/gromacs
;	Working dir:  /Users/malinda7066/Desktop/TTR/simulations/sk9_mon_mon
;	Command line:
;	  gmx pdb2gmx -f cluster1_1.pdb -o sk9_t2.gro -water tip3p -ignh
;	Force field was read from the standard GROMACS share directory.
;

[ moleculetype ]
; Name            nrexcl
Protein_chain_E     3

[ atoms ]
;   nr       type  resnr residue  atom   cgnr     charge       mass  typeB    chargeB      massB
; residue 509 SER rtp SER  q +1.0
     1        NH3    509    SER      N      1       -0.3     14.007
     2         HC    509    SER     H1      2       0.33      1.008
     3         HC    509    SER     H2      3       0.33      1.008
     4         HC    509    SER     H3      4       0.33      1.008
     5        CT1    509    SER     CA      5       0.21     12.011
     6        HB1    509    SER     HA      5        0.1      1.008
     7        CT2    509    SER     CB      6       0.05     12.011
     8        HA2    509    SER    HB1      6       0.09      1.008
     9        HA2    509    SER    HB2      6       0.09      1.008
    10        OH1    509    SER     OG      6      -0.66    15.9994
    11          H    509    SER    HG1      6       0.43      1.008
    12          C    509    SER      C      7       0.51     12.011
    13          O    509    SER      O      7      -0.51    15.9994   ; qtot 1
; residue 510 PHE rtp PHE  q  0.0
    14        NH1    510    PHE      N      8      -0.47     14.007
    15          H    510    PHE     HN      8       0.31      1.008
    16        CT1    510    PHE     CA      8       0.07     12.011
    17        HB1    510    PHE     HA      8       0.09      1.008
    18        CT2    510    PHE     CB      9      -0.18     12.011
    19        HA2    510    PHE    HB1      9       0.09      1.008
    20        HA2    510    PHE    HB2      9       0.09      1.008
    21         CA    510    PHE     CG     10          0     12.011
    22         CA    510    PHE    CD1     11     -0.115     12.011
    23         HP    510    PHE    HD1     11      0.115      1.008
    24         CA    510    PHE    CE1     12     -0.115     12.011
    25         HP    510    PHE    HE1     12      0.115      1.008
    26         CA    510    PHE     CZ     13     -0.115     12.011
    27         HP    510    PHE     HZ     13      0.115      1.008
    28         CA    510    PHE    CD2     14     -0.115     12.011
    29         HP    510    PHE    HD2     14      0.115      1.008
    30         CA    510    PHE    CE2     15     -0.115     12.011
    31         HP    510    PHE    HE2     15      0.115      1.008
    32          C    510    PHE      C     16       0.51     12.011
    33          O    510    PHE      O     16      -0.51    15.9994   ; qtot 1
; residue 511 TYR rtp TYR  q  0.0
    34        NH1    511    TYR      N     17      -0.47     14.007
    35          H    511    TYR     HN     17       0.31      1.008
    36        CT1    511    TYR     CA     17       0.07     12.011
    37        HB1    511    TYR     HA     17       0.09      1.008
    38        CT2    511    TYR     CB     18      -0.18     12.011
    39        HA2    511    TYR    HB1     18       0.09      1.008
    40        HA2    511    TYR    HB2     18       0.09      1.008
    41         CA    511    TYR     CG     19          0     12.011
    42         CA    511    TYR    CD1     20     -0.115     12.011
    43         HP    511    TYR    HD1     20      0.115      1.008
    44         CA    511    TYR    CE1     21     -0.115     12.011
    45         HP    511    TYR    HE1     21      0.115      1.008
    46         CA    511    TYR     CZ     22       0.11     12.011
    47        OH1    511    TYR     OH     22      -0.54    15.9994
    48          H    511    TYR     HH     22       0.43      1.008
    49         CA    511    TYR    CD2     23     -0.115     12.011
    50         HP    511    TYR    HD2     23      0.115      1.008
    51         CA    511    TYR    CE2     24     -0.115     12.011
    52         HP    511    TYR    HE2     24      0.115      1.008
    53          C    511    TYR      C     25       0.51     12.011
    54          O    511    TYR      O     25      -0.51    15.9994   ; qtot 1
; residue 512 VAL rtp VAL  q  0.0
    55        NH1    512    VAL      N     26      -0.47     14.007
    56          H    512    VAL     HN     26       0.31      1.008
    57        CT1    512    VAL     CA     26       0.07     12.011
    58        HB1    512    VAL     HA     26       0.09      1.008
    59        CT1    512    VAL     CB     27      -0.09     12.011
    60        HA1    512    VAL     HB     27       0.09      1.008
    61        CT3    512    VAL    CG1     28      -0.27     12.011
    62        HA3    512    VAL   HG11     28       0.09      1.008
    63        HA3    512    VAL   HG12     28       0.09      1.008
    64        HA3    512    VAL   HG13     28       0.09      1.008
    65        CT3    512    VAL    CG2     29      -0.27     12.011
    66        HA3    512    VAL   HG21     29       0.09      1.008
    67        HA3    512    VAL   HG22     29       0.09      1.008
    68        HA3    512    VAL   HG23     29       0.09      1.008
    69          C    512    VAL      C     30       0.51     12.011
    70          O    512    VAL      O     30      -0.51    15.9994   ; qtot 1
; residue 513 TYR rtp TYR  q  0.0
    71        NH1    513    TYR      N     31      -0.47     14.007
    72          H    513    TYR     HN     31       0.31      1.008
    73        CT1    513    TYR     CA     31       0.07     12.011
    74        HB1    513    TYR     HA     31       0.09      1.008
    75        CT2    513    TYR     CB     32      -0.18     12.011
    76        HA2    513    TYR    HB1     32       0.09      1.008
    77        HA2    513    TYR    HB2     32       0.09      1.008
    78         CA    513    TYR     CG     33          0     12.011
    79         CA    513    TYR    CD1     34     -0.115     12.011
    80         HP    513    TYR    HD1     34      0.115      1.008
    81         CA    513    TYR    CE1     35     -0.115     12.011
    82         HP    513    TYR    HE1     35      0.115      1.008
    83         CA    513    TYR     CZ     36       0.11     12.011
    84        OH1    513    TYR     OH     36      -0.54    15.9994
    85          H    513    TYR     HH     36       0.43      1.008
    86         CA    513    TYR    CD2     37     -0.115     12.011
    87         HP    513    TYR    HD2     37      0.115      1.008
    88         CA    513    TYR    CE2     38     -0.115     12.011
    89         HP    513    TYR    HE2     38      0.115      1.008
    90          C    513    TYR      C     39       0.51     12.011
    91          O    513    TYR      O     39      -0.51    15.9994   ; qtot 1
; residue 514 SER rtp SER  q  0.0
    92        NH1    514    SER      N     40      -0.47     14.007
    93          H    514    SER     HN     40       0.31      1.008
    94        CT1    514    SER     CA     40       0.07     12.011
    95        HB1    514    SER     HA     40       0.09      1.008
    96        CT2    514    SER     CB     41       0.05     12.011
    97        HA2    514    SER    HB1     41       0.09      1.008
    98        HA2    514    SER    HB2     41       0.09      1.008
    99        OH1    514    SER     OG     41      -0.66    15.9994
   100          H    514    SER    HG1     41       0.43      1.008
   101          C    514    SER      C     42       0.51     12.011
   102          O    514    SER      O     42      -0.51    15.9994   ; qtot 1
; residue 515 ARG rtp ARG  q +1.0
   103        NH1    515    ARG      N     43      -0.47     14.007
   104          H    515    ARG     HN     43       0.31      1.008
   105        CT1    515    ARG     CA     43       0.07     12.011
   106        HB1    515    ARG     HA     43       0.09      1.008
   107        CT2    515    ARG     CB     44      -0.18     12.011
   108        HA2    515    ARG    HB1     44       0.09      1.008
   109        HA2    515    ARG    HB2     44       0.09      1.008
   110        CT2    515    ARG     CG     45      -0.18     12.011
   111        HA2    515    ARG    HG1     45       0.09      1.008
   112        HA2    515    ARG    HG2     45       0.09      1.008
   113        CT2    515    ARG     CD     46        0.2     12.011
   114        HA2    515    ARG    HD1     46       0.09      1.008
   115        HA2    515    ARG    HD2     46       0.09      1.008
   116        NC2    515    ARG     NE     46       -0.7     14.007
   117         HC    515    ARG     HE     46       0.44      1.008
   118          C    515    ARG     CZ     46       0.64     12.011
   119        NC2    515    ARG    NH1     46       -0.8     14.007
   120         HC    515    ARG   HH11     46       0.46      1.008
   121         HC    515    ARG   HH12     46       0.46      1.008
   122        NC2    515    ARG    NH2     46       -0.8     14.007
   123         HC    515    ARG   HH21     46       0.46      1.008
   124         HC    515    ARG   HH22     46       0.46      1.008
   125          C    515    ARG      C     47       0.51     12.011
   126          O    515    ARG      O     47      -0.51    15.9994   ; qtot 2
; residue 516 VAL rtp VAL  q  0.0
   127        NH1    516    VAL      N     48      -0.47     14.007
   128          H    516    VAL     HN     48       0.31      1.008
   129        CT1    516    VAL     CA     48       0.07     12.011
   130        HB1    516    VAL     HA     48       0.09      1.008
   131        CT1    516    VAL     CB     49      -0.09     12.011
   132        HA1    516    VAL     HB     49       0.09      1.008
   133        CT3    516    VAL    CG1     50      -0.27     12.011
   134        HA3    516    VAL   HG11     50       0.09      1.008
   135        HA3    516    VAL   HG12     50       0.09      1.008
   136        HA3    516    VAL   HG13     50       0.09      1.008
   137        CT3    516    VAL    CG2     51      -0.27     12.011
   138        HA3    516    VAL   HG21     51       0.09      1.008
   139        HA3    516    VAL   HG22     51       0.09      1.008
   140        HA3    516    VAL   HG23     51       0.09      1.008
   141          C    516    VAL      C     52       0.51     12.011
   142          O    516    VAL      O     52      -0.51    15.9994   ; qtot 2
; residue 517 LYS rtp LYS  q  0.0
   143        NH1    517    LYS      N     53      -0.47     14.007
   144          H    517    LYS     HN     53       0.31      1.008
   145        CT1    517    LYS     CA     53       0.07     12.011
   146        HB1    517    LYS     HA     53       0.09      1.008
   147        CT2    517    LYS     CB     54      -0.18     12.011
   148        HA2    517    LYS    HB1     54       0.09      1.008
   149        HA2    517    LYS    HB2     54       0.09      1.008
   150        CT2    517    LYS     CG     55      -0.18     12.011
   151        HA2    517    LYS    HG1     55       0.09      1.008
   152        HA2    517    LYS    HG2     55       0.09      1.008
   153        CT2    517    LYS     CD     56      -0.18     12.011
   154        HA2    517    LYS    HD1     56       0.09      1.008
   155        HA2    517    LYS    HD2     56       0.09      1.008
   156        CT2    517    LYS     CE     57       0.21     12.011
   157        HA2    517    LYS    HE1     57       0.05      1.008
   158        HA2    517    LYS    HE2     57       0.05      1.008
   159        NH3    517    LYS     NZ     57       -0.3     14.007
   160         HC    517    LYS    HZ1     57       0.33      1.008
   161         HC    517    LYS    HZ2     57       0.33      1.008
   162         HC    517    LYS    HZ3     57       0.33      1.008
   163         CC    517    LYS      C     58       0.34     12.011
   164         OC    517    LYS    OT1     59      -0.67    15.9994
   165         OC    517    LYS    OT2     60      -0.67    15.9994   ; qtot 2

[ bonds ]
;  ai    aj funct            c0            c1            c2            c3
    1     2     1 
    1     3     1 
    1     4     1 
    1     5     1 
    5     6     1 
    5     7     1 
    5    12     1 
    7     8     1 
    7     9     1 
    7    10     1 
   10    11     1 
   12    13     1 
   12    14     1 
   14    15     1 
   14    16     1 
   16    17     1 
   16    18     1 
   16    32     1 
   18    19     1 
   18    20     1 
   18    21     1 
   21    22     1 
   21    28     1 
   22    23     1 
   22    24     1 
   24    25     1 
   24    26     1 
   26    27     1 
   26    30     1 
   28    29     1 
   28    30     1 
   30    31     1 
   32    33     1 
   32    34     1 
   34    35     1 
   34    36     1 
   36    37     1 
   36    38     1 
   36    53     1 
   38    39     1 
   38    40     1 
   38    41     1 
   41    42     1 
   41    49     1 
   42    43     1 
   42    44     1 
   44    45     1 
   44    46     1 
   46    47     1 
   46    51     1 
   47    48     1 
   49    50     1 
   49    51     1 
   51    52     1 
   53    54     1 
   53    55     1 
   55    56     1 
   55    57     1 
   57    58     1 
   57    59     1 
   57    69     1 
   59    60     1 
   59    61     1 
   59    65     1 
   61    62     1 
   61    63     1 
   61    64     1 
   65    66     1 
   65    67     1 
   65    68     1 
   69    70     1 
   69    71     1 
   71    72     1 
   71    73     1 
   73    74     1 
   73    75     1 
   73    90     1 
   75    76     1 
   75    77     1 
   75    78     1 
   78    79     1 
   78    86     1 
   79    80     1 
   79    81     1 
   81    82     1 
   81    83     1 
   83    84     1 
   83    88     1 
   84    85     1 
   86    87     1 
   86    88     1 
   88    89     1 
   90    91     1 
   90    92     1 
   92    93     1 
   92    94     1 
   94    95     1 
   94    96     1 
   94   101     1 
   96    97     1 
   96    98     1 
   96    99     1 
   99   100     1 
  101   102     1 
  101   103     1 
  103   104     1 
  103   105     1 
  105   106     1 
  105   107     1 
  105   125     1 
  107   108     1 
  107   109     1 
  107   110     1 
  110   111     1 
  110   112     1 
  110   113     1 
  113   114     1 
  113   115     1 
  113   116     1 
  116   117     1 
  116   118     1 
  118   119     1 
  118   122     1 
  119   120     1 
  119   121     1 
  122   123     1 
  122   124     1 
  125   126     1 
  125   127     1 
  127   128     1 
  127   129     1 
  129   130     1 
  129   131     1 
  129   141     1 
  131   132     1 
  131   133     1 
  131   137     1 
  133   134     1 
  133   135     1 
  133   136     1 
  137   138     1 
  137   139     1 
  137   140     1 
  141   142     1 
  141   143     1 
  143   144     1 
  143   145     1 
  145   146     1 
  145   147     1 
  145   163     1 
  147   148     1 
  147   149     1 
  147   150     1 
  150   151     1 
  150   152     1 
  150   153     1 
  153   154     1 
  153   155     1 
  153   156     1 
  156   157     1 
  156   158     1 
  156   159     1 
  159   160     1 
  159   161     1 
  159   162     1 
  163   164     1 
  163   165     1 

[ pairs ]
;  ai    aj funct            c0            c1            c2            c3
    1     8     1 
    1     9     1 
    1    10     1 
    1    13     1 
    1    14     1 
    2     6     1 
    2     7     1 
    2    12     1 
    3     6     1 
    3     7     1 
    3    12     1 
    4     6     1 
    4     7     1 
    4    12     1 
    5    11     1 
    5    15     1 
    5    16     1 
    6     8     1 
    6     9     1 
    6    10     1 
    6    13     1 
    6    14     1 
    7    13     1 
    7    14     1 
    8    11     1 
    8    12     1 
    9    11     1 
    9    12     1 
   10    12     1 
   12    17     1 
   12    18     1 
   12    32     1 
   13    15     1 
   13    16     1 
   14    19     1 
   14    20     1 
   14    21     1 
   14    33     1 
   14    34     1 
   15    17     1 
   15    18     1 
   15    32     1 
   16    22     1 
   16    28     1 
   16    35     1 
   16    36     1 
   17    19     1 
   17    20     1 
   17    21     1 
   17    33     1 
   17    34     1 
   18    23     1 
   18    24     1 
   18    29     1 
   18    30     1 
   18    33     1 
   18    34     1 
   19    22     1 
   19    28     1 
   19    32     1 
   20    22     1 
   20    28     1 
   20    32     1 
   21    25     1 
   21    26     1 
   21    31     1 
   21    32     1 
   22    27     1 
   22    29     1 
   22    30     1 
   23    25     1 
   23    26     1 
   23    28     1 
   24    28     1 
   24    31     1 
   25    27     1 
   25    30     1 
   26    29     1 
   27    28     1 
   27    31     1 
   29    31     1 
   32    37     1 
   32    38     1 
   32    53     1 
   33    35     1 
   33    36     1 
   34    39     1 
   34    40     1 
   34    41     1 
   34    54     1 
   34    55     1 
   35    37     1 
   35    38     1 
   35    53     1 
   36    42     1 
   36    49     1 
   36    56     1 
   36    57     1 
   37    39     1 
   37    40     1 
   37    41     1 
   37    54     1 
   37    55     1 
   38    43     1 
   38    44     1 
   38    50     1 
   38    51     1 
   38    54     1 
   38    55     1 
   39    42     1 
   39    49     1 
   39    53     1 
   40    42     1 
   40    49     1 
   40    53     1 
   41    45     1 
   41    46     1 
   41    52     1 
   41    53     1 
   42    47     1 
   42    50     1 
   42    51     1 
   43    45     1 
   43    46     1 
   43    49     1 
   44    48     1 
   44    49     1 
   44    52     1 
   45    47     1 
   45    51     1 
   46    50     1 
   47    49     1 
   47    52     1 
   48    51     1 
   50    52     1 
   53    58     1 
   53    59     1 
   53    69     1 
   54    56     1 
   54    57     1 
   55    60     1 
   55    61     1 
   55    65     1 
   55    70     1 
   55    71     1 
   56    58     1 
   56    59     1 
   56    69     1 
   57    62     1 
   57    63     1 
   57    64     1 
   57    66     1 
   57    67     1 
   57    68     1 
   57    72     1 
   57    73     1 
   58    60     1 
   58    61     1 
   58    65     1 
   58    70     1 
   58    71     1 
   59    70     1 
   59    71     1 
   60    62     1 
   60    63     1 
   60    64     1 
   60    66     1 
   60    67     1 
   60    68     1 
   60    69     1 
   61    66     1 
   61    67     1 
   61    68     1 
   61    69     1 
   62    65     1 
   63    65     1 
   64    65     1 
   65    69     1 
   69    74     1 
   69    75     1 
   69    90     1 
   70    72     1 
   70    73     1 
   71    76     1 
   71    77     1 
   71    78     1 
   71    91     1 
   71    92     1 
   72    74     1 
   72    75     1 
   72    90     1 
   73    79     1 
   73    86     1 
   73    93     1 
   73    94     1 
   74    76     1 
   74    77     1 
   74    78     1 
   74    91     1 
   74    92     1 
   75    80     1 
   75    81     1 
   75    87     1 
   75    88     1 
   75    91     1 
   75    92     1 
   76    79     1 
   76    86     1 
   76    90     1 
   77    79     1 
   77    86     1 
   77    90     1 
   78    82     1 
   78    83     1 
   78    89     1 
   78    90     1 
   79    84     1 
   79    87     1 
   79    88     1 
   80    82     1 
   80    83     1 
   80    86     1 
   81    85     1 
   81    86     1 
   81    89     1 
   82    84     1 
   82    88     1 
   83    87     1 
   84    86     1 
   84    89     1 
   85    88     1 
   87    89     1 
   90    95     1 
   90    96     1 
   90   101     1 
   91    93     1 
   91    94     1 
   92    97     1 
   92    98     1 
   92    99     1 
   92   102     1 
   92   103     1 
   93    95     1 
   93    96     1 
   93   101     1 
   94   100     1 
   94   104     1 
   94   105     1 
   95    97     1 
   95    98     1 
   95    99     1 
   95   102     1 
   95   103     1 
   96   102     1 
   96   103     1 
   97   100     1 
   97   101     1 
   98   100     1 
   98   101     1 
   99   101     1 
  101   106     1 
  101   107     1 
  101   125     1 
  102   104     1 
  102   105     1 
  103   108     1 
  103   109     1 
  103   110     1 
  103   126     1 
  103   127     1 
  104   106     1 
  104   107     1 
  104   125     1 
  105   111     1 
  105   112     1 
  105   113     1 
  105   128     1 
  105   129     1 
  106   108     1 
  106   109     1 
  106   110     1 
  106   126     1 
  106   127     1 
  107   114     1 
  107   115     1 
  107   116     1 
  107   126     1 
  107   127     1 
  108   111     1 
  108   112     1 
  108   113     1 
  108   125     1 
  109   111     1 
  109   112     1 
  109   113     1 
  109   125     1 
  110   117     1 
  110   118     1 
  110   125     1 
  111   114     1 
  111   115     1 
  111   116     1 
  112   114     1 
  112   115     1 
  112   116     1 
  113   119     1 
  113   122     1 
  114   117     1 
  114   118     1 
  115   117     1 
  115   118     1 
  116   120     1 
  116   121     1 
  116   123     1 
  116   124     1 
  117   119     1 
  117   122     1 
  119   123     1 
  119   124     1 
  120   122     1 
  121   122     1 
  125   130     1 
  125   131     1 
  125   141     1 
  126   128     1 
  126   129     1 
  127   132     1 
  127   133     1 
  127   137     1 
  127   142     1 
  127   143     1 
  128   130     1 
  128   131     1 
  128   141     1 
  129   134     1 
  129   135     1 
  129   136     1 
  129   138     1 
  129   139     1 
  129   140     1 
  129   144     1 
  129   145     1 
  130   132     1 
  130   133     1 
  130   137     1 
  130   142     1 
  130   143     1 
  131   142     1 
  131   143     1 
  132   134     1 
  132   135     1 
  132   136     1 
  132   138     1 
  132   139     1 
  132   140     1 
  132   141     1 
  133   138     1 
  133   139     1 
  133   140     1 
  133   141     1 
  134   137     1 
  135   137     1 
  136   137     1 
  137   141     1 
  141   146     1 
  141   147     1 
  141   163     1 
  142   144     1 
  142   145     1 
  143   148     1 
  143   149     1 
  143   150     1 
  143   164     1 
  143   165     1 
  144   146     1 
  144   147     1 
  144   163     1 
  145   151     1 
  145   152     1 
  145   153     1 
  146   148     1 
  146   149     1 
  146   150     1 
  146   164     1 
  146   165     1 
  147   154     1 
  147   155     1 
  147   156     1 
  147   164     1 
  147   165     1 
  148   151     1 
  148   152     1 
  148   153     1 
  148   163     1 
  149   151     1 
  149   152     1 
  149   153     1 
  149   163     1 
  150   157     1 
  150   158     1 
  150   159     1 
  150   163     1 
  151   154     1 
  151   155     1 
  151   156     1 
  152   154     1 
  152   155     1 
  152   156     1 
  153   160     1 
  153   161     1 
  153   162     1 
  154   157     1 
  154   158     1 
  154   159     1 
  155   157     1 
  155   158     1 
  155   159     1 
  157   160     1 
  157   161     1 
  157   162     1 
  158   160     1 
  158   161     1 
  158   162     1 

[ angles ]
;  ai    aj    ak funct            c0            c1            c2            c3
    2     1     3     5 
    2     1     4     5 
    2     1     5     5 
    3     1     4     5 
    3     1     5     5 
    4     1     5     5 
    1     5     6     5 
    1     5     7     5 
    1     5    12     5 
    6     5     7     5 
    6     5    12     5 
    7     5    12     5 
    5     7     8     5 
    5     7     9     5 
    5     7    10     5 
    8     7     9     5 
    8     7    10     5 
    9     7    10     5 
    7    10    11     5 
    5    12    13     5 
    5    12    14     5 
   13    12    14     5 
   12    14    15     5 
   12    14    16     5 
   15    14    16     5 
   14    16    17     5 
   14    16    18     5 
   14    16    32     5 
   17    16    18     5 
   17    16    32     5 
   18    16    32     5 
   16    18    19     5 
   16    18    20     5 
   16    18    21     5 
   19    18    20     5 
   19    18    21     5 
   20    18    21     5 
   18    21    22     5 
   18    21    28     5 
   22    21    28     5 
   21    22    23     5 
   21    22    24     5 
   23    22    24     5 
   22    24    25     5 
   22    24    26     5 
   25    24    26     5 
   24    26    27     5 
   24    26    30     5 
   27    26    30     5 
   21    28    29     5 
   21    28    30     5 
   29    28    30     5 
   26    30    28     5 
   26    30    31     5 
   28    30    31     5 
   16    32    33     5 
   16    32    34     5 
   33    32    34     5 
   32    34    35     5 
   32    34    36     5 
   35    34    36     5 
   34    36    37     5 
   34    36    38     5 
   34    36    53     5 
   37    36    38     5 
   37    36    53     5 
   38    36    53     5 
   36    38    39     5 
   36    38    40     5 
   36    38    41     5 
   39    38    40     5 
   39    38    41     5 
   40    38    41     5 
   38    41    42     5 
   38    41    49     5 
   42    41    49     5 
   41    42    43     5 
   41    42    44     5 
   43    42    44     5 
   42    44    45     5 
   42    44    46     5 
   45    44    46     5 
   44    46    47     5 
   44    46    51     5 
   47    46    51     5 
   46    47    48     5 
   41    49    50     5 
   41    49    51     5 
   50    49    51     5 
   46    51    49     5 
   46    51    52     5 
   49    51    52     5 
   36    53    54     5 
   36    53    55     5 
   54    53    55     5 
   53    55    56     5 
   53    55    57     5 
   56    55    57     5 
   55    57    58     5 
   55    57    59     5 
   55    57    69     5 
   58    57    59     5 
   58    57    69     5 
   59    57    69     5 
   57    59    60     5 
   57    59    61     5 
   57    59    65     5 
   60    59    61     5 
   60    59    65     5 
   61    59    65     5 
   59    61    62     5 
   59    61    63     5 
   59    61    64     5 
   62    61    63     5 
   62    61    64     5 
   63    61    64     5 
   59    65    66     5 
   59    65    67     5 
   59    65    68     5 
   66    65    67     5 
   66    65    68     5 
   67    65    68     5 
   57    69    70     5 
   57    69    71     5 
   70    69    71     5 
   69    71    72     5 
   69    71    73     5 
   72    71    73     5 
   71    73    74     5 
   71    73    75     5 
   71    73    90     5 
   74    73    75     5 
   74    73    90     5 
   75    73    90     5 
   73    75    76     5 
   73    75    77     5 
   73    75    78     5 
   76    75    77     5 
   76    75    78     5 
   77    75    78     5 
   75    78    79     5 
   75    78    86     5 
   79    78    86     5 
   78    79    80     5 
   78    79    81     5 
   80    79    81     5 
   79    81    82     5 
   79    81    83     5 
   82    81    83     5 
   81    83    84     5 
   81    83    88     5 
   84    83    88     5 
   83    84    85     5 
   78    86    87     5 
   78    86    88     5 
   87    86    88     5 
   83    88    86     5 
   83    88    89     5 
   86    88    89     5 
   73    90    91     5 
   73    90    92     5 
   91    90    92     5 
   90    92    93     5 
   90    92    94     5 
   93    92    94     5 
   92    94    95     5 
   92    94    96     5 
   92    94   101     5 
   95    94    96     5 
   95    94   101     5 
   96    94   101     5 
   94    96    97     5 
   94    96    98     5 
   94    96    99     5 
   97    96    98     5 
   97    96    99     5 
   98    96    99     5 
   96    99   100     5 
   94   101   102     5 
   94   101   103     5 
  102   101   103     5 
  101   103   104     5 
  101   103   105     5 
  104   103   105     5 
  103   105   106     5 
  103   105   107     5 
  103   105   125     5 
  106   105   107     5 
  106   105   125     5 
  107   105   125     5 
  105   107   108     5 
  105   107   109     5 
  105   107   110     5 
  108   107   109     5 
  108   107   110     5 
  109   107   110     5 
  107   110   111     5 
  107   110   112     5 
  107   110   113     5 
  111   110   112     5 
  111   110   113     5 
  112   110   113     5 
  110   113   114     5 
  110   113   115     5 
  110   113   116     5 
  114   113   115     5 
  114   113   116     5 
  115   113   116     5 
  113   116   117     5 
  113   116   118     5 
  117   116   118     5 
  116   118   119     5 
  116   118   122     5 
  119   118   122     5 
  118   119   120     5 
  118   119   121     5 
  120   119   121     5 
  118   122   123     5 
  118   122   124     5 
  123   122   124     5 
  105   125   126     5 
  105   125   127     5 
  126   125   127     5 
  125   127   128     5 
  125   127   129     5 
  128   127   129     5 
  127   129   130     5 
  127   129   131     5 
  127   129   141     5 
  130   129   131     5 
  130   129   141     5 
  131   129   141     5 
  129   131   132     5 
  129   131   133     5 
  129   131   137     5 
  132   131   133     5 
  132   131   137     5 
  133   131   137     5 
  131   133   134     5 
  131   133   135     5 
  131   133   136     5 
  134   133   135     5 
  134   133   136     5 
  135   133   136     5 
  131   137   138     5 
  131   137   139     5 
  131   137   140     5 
  138   137   139     5 
  138   137   140     5 
  139   137   140     5 
  129   141   142     5 
  129   141   143     5 
  142   141   143     5 
  141   143   144     5 
  141   143   145     5 
  144   143   145     5 
  143   145   146     5 
  143   145   147     5 
  143   145   163     5 
  146   145   147     5 
  146   145   163     5 
  147   145   163     5 
  145   147   148     5 
  145   147   149     5 
  145   147   150     5 
  148   147   149     5 
  148   147   150     5 
  149   147   150     5 
  147   150   151     5 
  147   150   152     5 
  147   150   153     5 
  151   150   152     5 
  151   150   153     5 
  152   150   153     5 
  150   153   154     5 
  150   153   155     5 
  150   153   156     5 
  154   153   155     5 
  154   153   156     5 
  155   153   156     5 
  153   156   157     5 
  153   156   158     5 
  153   156   159     5 
  157   156   158     5 
  157   156   159     5 
  158   156   159     5 
  156   159   160     5 
  156   159   161     5 
  156   159   162     5 
  160   159   161     5 
  160   159   162     5 
  161   159   162     5 
  145   163   164     5 
  145   163   165     5 
  164   163   165     5 

[ dihedrals ]
;  ai    aj    ak    al funct            c0            c1            c2            c3            c4            c5
    2     1     5     6     9 
    2     1     5     7     9 
    2     1     5    12     9 
    3     1     5     6     9 
    3     1     5     7     9 
    3     1     5    12     9 
    4     1     5     6     9 
    4     1     5     7     9 
    4     1     5    12     9 
    1     5     7     8     9 
    1     5     7     9     9 
    1     5     7    10     9 
    6     5     7     8     9 
    6     5     7     9     9 
    6     5     7    10     9 
   12     5     7     8     9 
   12     5     7     9     9 
   12     5     7    10     9 
    1     5    12    13     9 
    1     5    12    14     9 
    6     5    12    13     9 
    6     5    12    14     9 
    7     5    12    13     9 
    7     5    12    14     9 
    5     7    10    11     9 
    8     7    10    11     9 
    9     7    10    11     9 
    5    12    14    15     9 
    5    12    14    16     9 
   13    12    14    15     9 
   13    12    14    16     9 
   12    14    16    17     9 
   12    14    16    18     9 
   12    14    16    32     9 
   15    14    16    17     9 
   15    14    16    18     9 
   15    14    16    32     9 
   14    16    18    19     9 
   14    16    18    20     9 
   14    16    18    21     9 
   17    16    18    19     9 
   17    16    18    20     9 
   17    16    18    21     9 
   32    16    18    19     9 
   32    16    18    20     9 
   32    16    18    21     9 
   14    16    32    33     9 
   14    16    32    34     9 
   17    16    32    33     9 
   17    16    32    34     9 
   18    16    32    33     9 
   18    16    32    34     9 
   16    18    21    22     9 
   16    18    21    28     9 
   19    18    21    22     9 
   19    18    21    28     9 
   20    18    21    22     9 
   20    18    21    28     9 
   18    21    22    23     9 
   18    21    22    24     9 
   28    21    22    23     9 
   28    21    22    24     9 
   18    21    28    29     9 
   18    21    28    30     9 
   22    21    28    29     9 
   22    21    28    30     9 
   21    22    24    25     9 
   21    22    24    26     9 
   23    22    24    25     9 
   23    22    24    26     9 
   22    24    26    27     9 
   22    24    26    30     9 
   25    24    26    27     9 
   25    24    26    30     9 
   24    26    30    28     9 
   24    26    30    31     9 
   27    26    30    28     9 
   27    26    30    31     9 
   21    28    30    26     9 
   21    28    30    31     9 
   29    28    30    26     9 
   29    28    30    31     9 
   16    32    34    35     9 
   16    32    34    36     9 
   33    32    34    35     9 
   33    32    34    36     9 
   32    34    36    37     9 
   32    34    36    38     9 
   32    34    36    53     9 
   35    34    36    37     9 
   35    34    36    38     9 
   35    34    36    53     9 
   34    36    38    39     9 
   34    36    38    40     9 
   34    36    38    41     9 
   37    36    38    39     9 
   37    36    38    40     9 
   37    36    38    41     9 
   53    36    38    39     9 
   53    36    38    40     9 
   53    36    38    41     9 
   34    36    53    54     9 
   34    36    53    55     9 
   37    36    53    54     9 
   37    36    53    55     9 
   38    36    53    54     9 
   38    36    53    55     9 
   36    38    41    42     9 
   36    38    41    49     9 
   39    38    41    42     9 
   39    38    41    49     9 
   40    38    41    42     9 
   40    38    41    49     9 
   38    41    42    43     9 
   38    41    42    44     9 
   49    41    42    43     9 
   49    41    42    44     9 
   38    41    49    50     9 
   38    41    49    51     9 
   42    41    49    50     9 
   42    41    49    51     9 
   41    42    44    45     9 
   41    42    44    46     9 
   43    42    44    45     9 
   43    42    44    46     9 
   42    44    46    47     9 
   42    44    46    51     9 
   45    44    46    47     9 
   45    44    46    51     9 
   44    46    47    48     9 
   51    46    47    48     9 
   44    46    51    49     9 
   44    46    51    52     9 
   47    46    51    49     9 
   47    46    51    52     9 
   41    49    51    46     9 
   41    49    51    52     9 
   50    49    51    46     9 
   50    49    51    52     9 
   36    53    55    56     9 
   36    53    55    57     9 
   54    53    55    56     9 
   54    53    55    57     9 
   53    55    57    58     9 
   53    55    57    59     9 
   53    55    57    69     9 
   56    55    57    58     9 
   56    55    57    59     9 
   56    55    57    69     9 
   55    57    59    60     9 
   55    57    59    61     9 
   55    57    59    65     9 
   58    57    59    60     9 
   58    57    59    61     9 
   58    57    59    65     9 
   69    57    59    60     9 
   69    57    59    61     9 
   69    57    59    65     9 
   55    57    69    70     9 
   55    57    69    71     9 
   58    57    69    70     9 
   58    57    69    71     9 
   59    57    69    70     9 
   59    57    69    71     9 
   57    59    61    62     9 
   57    59    61    63     9 
   57    59    61    64     9 
   60    59    61    62     9 
   60    59    61    63     9 
   60    59    61    64     9 
   65    59    61    62     9 
   65    59    61    63     9 
   65    59    61    64     9 
   57    59    65    66     9 
   57    59    65    67     9 
   57    59    65    68     9 
   60    59    65    66     9 
   60    59    65    67     9 
   60    59    65    68     9 
   61    59    65    66     9 
   61    59    65    67     9 
   61    59    65    68     9 
   57    69    71    72     9 
   57    69    71    73     9 
   70    69    71    72     9 
   70    69    71    73     9 
   69    71    73    74     9 
   69    71    73    75     9 
   69    71    73    90     9 
   72    71    73    74     9 
   72    71    73    75     9 
   72    71    73    90     9 
   71    73    75    76     9 
   71    73    75    77     9 
   71    73    75    78     9 
   74    73    75    76     9 
   74    73    75    77     9 
   74    73    75    78     9 
   90    73    75    76     9 
   90    73    75    77     9 
   90    73    75    78     9 
   71    73    90    91     9 
   71    73    90    92     9 
   74    73    90    91     9 
   74    73    90    92     9 
   75    73    90    91     9 
   75    73    90    92     9 
   73    75    78    79     9 
   73    75    78    86     9 
   76    75    78    79     9 
   76    75    78    86     9 
   77    75    78    79     9 
   77    75    78    86     9 
   75    78    79    80     9 
   75    78    79    81     9 
   86    78    79    80     9 
   86    78    79    81     9 
   75    78    86    87     9 
   75    78    86    88     9 
   79    78    86    87     9 
   79    78    86    88     9 
   78    79    81    82     9 
   78    79    81    83     9 
   80    79    81    82     9 
   80    79    81    83     9 
   79    81    83    84     9 
   79    81    83    88     9 
   82    81    83    84     9 
   82    81    83    88     9 
   81    83    84    85     9 
   88    83    84    85     9 
   81    83    88    86     9 
   81    83    88    89     9 
   84    83    88    86     9 
   84    83    88    89     9 
   78    86    88    83     9 
   78    86    88    89     9 
   87    86    88    83     9 
   87    86    88    89     9 
   73    90    92    93     9 
   73    90    92    94     9 
   91    90    92    93     9 
   91    90    92    94     9 
   90    92    94    95     9 
   90    92    94    96     9 
   90    92    94   101     9 
   93    92    94    95     9 
   93    92    94    96     9 
   93    92    94   101     9 
   92    94    96    97     9 
   92    94    96    98     9 
   92    94    96    99     9 
   95    94    96    97     9 
   95    94    96    98     9 
   95    94    96    99     9 
  101    94    96    97     9 
  101    94    96    98     9 
  101    94    96    99     9 
   92    94   101   102     9 
   92    94   101   103     9 
   95    94   101   102     9 
   95    94   101   103     9 
   96    94   101   102     9 
   96    94   101   103     9 
   94    96    99   100     9 
   97    96    99   100     9 
   98    96    99   100     9 
   94   101   103   104     9 
   94   101   103   105     9 
  102   101   103   104     9 
  102   101   103   105     9 
  101   103   105   106     9 
  101   103   105   107     9 
  101   103   105   125     9 
  104   103   105   106     9 
  104   103   105   107     9 
  104   103   105   125     9 
  103   105   107   108     9 
  103   105   107   109     9 
  103   105   107   110     9 
  106   105   107   108     9 
  106   105   107   109     9 
  106   105   107   110     9 
  125   105   107   108     9 
  125   105   107   109     9 
  125   105   107   110     9 
  103   105   125   126     9 
  103   105   125   127     9 
  106   105   125   126     9 
  106   105   125   127     9 
  107   105   125   126     9 
  107   105   125   127     9 
  105   107   110   111     9 
  105   107   110   112     9 
  105   107   110   113     9 
  108   107   110   111     9 
  108   107   110   112     9 
  108   107   110   113     9 
  109   107   110   111     9 
  109   107   110   112     9 
  109   107   110   113     9 
  107   110   113   114     9 
  107   110   113   115     9 
  107   110   113   116     9 
  111   110   113   114     9 
  111   110   113   115     9 
  111   110   113   116     9 
  112   110   113   114     9 
  112   110   113   115     9 
  112   110   113   116     9 
  110   113   116   117     9 
  110   113   116   118     9 
  114   113   116   117     9 
  114   113   116   118     9 
  115   113   116   117     9 
  115   113   116   118     9 
  113   116   118   119     9 
  113   116   118   122     9 
  117   116   118   119     9 
  117   116   118   122     9 
  116   118   119   120     9 
  116   118   119   121     9 
  122   118   119   120     9 
  122   118   119   121     9 
  116   118   122   123     9 
  116   118   122   124     9 
  119   118   122   123     9 
  119   118   122   124     9 
  105   125   127   128     9 
  105   125   127   129     9 
  126   125   127   128     9 
  126   125   127   129     9 
  125   127   129   130     9 
  125   127   129   131     9 
  125   127   129   141     9 
  128   127   129   130     9 
  128   127   129   131     9 
  128   127   129   141     9 
  127   129   131   132     9 
  127   129   131   133     9 
  127   129   131   137     9 
  130   129   131   132     9 
  130   129   131   133     9 
  130   129   131   137     9 
  141   129   131   132     9 
  141   129   131   133     9 
  141   129   131   137     9 
  127   129   141   142     9 
  127   129   141   143     9 
  130   129   141   142     9 
  130   129   141   143     9 
  131   129   141   142     9 
  131   129   141   143     9 
  129   131   133   134     9 
  129   131   133   135     9 
  129   131   133   136     9 
  132   131   133   134     9 
  132   131   133   135     9 
  132   131   133   136     9 
  137   131   133   134     9 
  137   131   133   135     9 
  137   131   133   136     9 
  129   131   137   138     9 
  129   131   137   139     9 
  129   131   137   140     9 
  132   131   137   138     9 
  132   131   137   139     9 
  132   131   137   140     9 
  133   131   137   138     9 
  133   131   137   139     9 
  133   131   137   140     9 
  129   141   143   144     9 
  129   141   143   145     9 
  142   141   143   144     9 
  142   141   143   145     9 
  141   143   145   146     9 
  141   143   145   147     9 
  141   143   145   163     9 
  144   143   145   146     9 
  144   143   145   147     9 
  144   143   145   163     9 
  143   145   147   148     9 
  143   145   147   149     9 
  143   145   147   150     9 
  146   145   147   148     9 
  146   145   147   149     9 
  146   145   147   150     9 
  163   145   147   148     9 
  163   145   147   149     9 
  163   145   147   150     9 
  143   145   163   164     9 
  143   145   163   165     9 
  146   145   163   164     9 
  146   145   163   165     9 
  147   145   163   164     9 
  147   145   163   165     9 
  145   147   150   151     9 
  145   147   150   152     9 
  145   147   150   153     9 
  148   147   150   151     9 
  148   147   150   152     9 
  148   147   150   153     9 
  149   147   150   151     9 
  149   147   150   152     9 
  149   147   150   153     9 
  147   150   153   154     9 
  147   150   153   155     9 
  147   150   153   156     9 
  151   150   153   154     9 
  151   150   153   155     9 
  151   150   153   156     9 
  152   150   153   154     9 
  152   150   153   155     9 
  152   150   153   156     9 
  150   153   156   157     9 
  150   153   156   158     9 
  150   153   156   159     9 
  154   153   156   157     9 
  154   153   156   158     9 
  154   153   156   159     9 
  155   153   156   157     9 
  155   153   156   158     9 
  155   153   156   159     9 
  153   156   159   160     9 
  153   156   159   161     9 
  153   156   159   162     9 
  157   156   159   160     9 
  157   156   159   161     9 
  157   156   159   162     9 
  158   156   159   160     9 
  158   156   159   161     9 
  158   156   159   162     9 

[ dihedrals ]
;  ai    aj    ak    al funct            c0            c1            c2            c3
   12     5    14    13     2 
   14    12    16    15     2 
   32    16    34    33     2 
   34    32    36    35     2 
   53    36    55    54     2 
   55    53    57    56     2 
   69    57    71    70     2 
   71    69    73    72     2 
   90    73    92    91     2 
   92    90    94    93     2 
  101    94   103   102     2 
  103   101   105   104     2 
  116   122   119   118     2 
  118   121   120   119     2 
  118   124   123   122     2 
  125   105   127   126     2 
  127   125   129   128     2 
  141   129   143   142     2 
  143   141   145   144     2 
  163   145   165   164     2 

[ cmap ]
;  ai    aj    ak    al    am funct
   12    14    16    32    34     1 
   32    34    36    53    55     1 
   53    55    57    69    71     1 
   69    71    73    90    92     1 
   90    92    94   101   103     1 
  101   103   105   125   127     1 
  125   127   129   141   143     1 

; Include Position restraint file
#ifdef POSRES
#include "posre_Protein_chain_E.itp"
#endif

