;
;	File 'topol.top' was generated
;	By user: malinda (504)
;	On host: registered-ip-10-196-114-37.lifesci.nor.ou.edu
;	At date: Fri Dec  5 13:06:39 2025
;
;	This is a standalone topology file
;
;	Created by:
;	                    :-) GROMACS - gmx pdb2gmx, 2022.4 (-:
;	
;	Executable:   /usr/local/gromacs/bin/gmx
;	Data prefix:  /usr/local/gromacs
;	Working dir:  /Users/malinda/Desktop/TTR/simulations/new_pep/new_pep_dim_dim
;	Command line:
;	  gmx pdb2gmx -f cluster1_1.pdb -o new_pep_t1.gro -water tip3p -ignh
;	Force field was read from the standard GROMACS share directory.
;

; Include forcefield parameters
#include "charmm36_ljpme-jul2022.ff/forcefield.itp"

; Include chain topologies
#include "topol_Protein_chain_A.itp"
#include "topol_Protein_chain_B.itp"
#include "topol_Protein_chain_C.itp"
#include "topol_Protein_chain_D.itp"
#include "topol_Protein_chain_E.itp"

; Include water topology
#include "charmm36_ljpme-jul2022.ff/tip3p.itp"

#ifdef POSRES_WATER
; Position restraint for each water oxygen
[ position_restraints ]
;  i funct       fcx        fcy        fcz
   1    1       1000       1000       1000
#endif

; Include topology for ions
#include "charmm36_ljpme-jul2022.ff/ions.itp"

[ system ]
; Name
Protein in water

[ molecules ]
; Compound        #mols
Protein_chain_A     1
Protein_chain_B     1
Protein_chain_C     1
Protein_chain_D     1
Protein_chain_E     1
SOL         31802
NA               115
CL               95
