;
;	File 'topol.top' was generated
;	By user: malinda7066 (501)
;	On host: Malindas-MacBook-Pro.local
;	At date: Tue Jan 27 20:25:51 2026
;
;	This is a standalone topology file
;
;	Created by:
;	                     :-) GROMACS - gmx pdb2gmx, 2022 (-:
;	
;	Executable:   /usr/local/gromacs/bin/gmx
;	Data prefix:  /usr/local/gromacs
;	Working dir:  /Users/malinda7066/Desktop/TTR/simulations/new_pep_mon_mon
;	Command line:
;	  gmx pdb2gmx -f cluster1_1.pdb -o ttr_t2.gro -water tip3p -ignh
;	Force field was read from the standard GROMACS share directory.
;

; Include forcefield parameters
#include "charmm36-jul2022.ff/forcefield.itp"

; Include chain topologies
#include "topol_Protein_chain_A.itp"
#include "topol_Protein_chain_B.itp"
#include "topol_Protein_chain_C.itp"
#include "topol_Protein_chain_D.itp"
#include "topol_Protein_chain_E.itp"

; Include water topology
#include "charmm36-jul2022.ff/tip3p.itp"

#ifdef POSRES_WATER
; Position restraint for each water oxygen
[ position_restraints ]
;  i funct       fcx        fcy        fcz
   1    1       1000       1000       1000
#endif

; Include topology for ions
#include "charmm36-jul2022.ff/ions.itp"

[ system ]
; Name
Protein in water

[ molecules ]
; Compound        #mols
Protein_chain_A     1
Protein_chain_B     1
Protein_chain_C     1
Protein_chain_D     1
Protein_chain_E     1
SOL         31493
NA               114
CL               94
